                  Welcome to Q-Chem
     A Quantum Leap Into The Future Of Chemistry


 Q-Chem 4.3, Q-Chem, Inc., Pleasanton, CA (2015)

 Y. Shao,  Z. Gan,  E. Epifanovsky,  A. T. B. Gilbert,  M. Wormit,  
 J. Kussmann,  A. W. Lange,  A. Behn,  J. Deng,  X. Feng,  D. Ghosh,  
 M. Goldey,  P. R. Horn,  L. D. Jacobson,  I. Kaliman,  R. Z. Khaliullin,  
 T. Kus,  A. Landau,  J. Liu,  E. I. Proynov,  Y. M. Rhee,  R. M. Richard,  
 M. A. Rohrdanz,  R. P. Steele,  E. J. Sundstrom,  H. L. Woodcock III,  
 P. M. Zimmerman,  D. Zuev,  B. Albrecht,  E. Alguire,  B. Austin,  
 S. A. Baeppler,  G. J. O. Beran,  Y. A. Bernard,  E. Berquist,  
 K. Brandhorst,  K. B. Bravaya,  S. T. Brown,  D. Casanova,  C.-M. Chang,  
 Y. Chen,  S. H. Chien,  K. D. Closser,  D. L. Crittenden,  M. Diedenhofen,  
 R. A. DiStasio Jr.,  H. Do,  A. D. Dutoi,  R. G. Edgar,  P.-T. Fang,  
 S. Fatehi,  Q. Feng,  L. Fusti-Molnar,  A. Ghysels,  
 A. Golubeva-Zadorozhnaya,  J. Gomes,  A. Gunina,  M. W. D. Hanson-Heine,  
 P. H. P. Harbach,  A. W. Hauser,  E. G. Hohenstein,  Z. C. Holden,  K. Hui,  
 T.-C. Jagau,  H. Ji,  B. Kaduk,  K. Khistyaev,  Jaehoon Kim,  Jihan Kim,  
 R. A. King,  P. Klunzinger,  D. Kosenkov,  T. Kowalczyk,  C. M. Krauter,  
 K. U. Lao,  A. Laurent,  K. V. Lawler,  S. Lehtola,  S. V. Levchenko,  
 C. Y. Lin,  Y.-S. Lin,  F. Liu,  E. Livshits,  R. C. Lochan,  A. Luenser,  
 P. Manohar,  S. F. Manzer,  S.-P. Mao,  N. Mardirossian,  A. V. Marenich,  
 L. A. Martinez-Martinez,  S. A. Maurer,  N. J. Mayhall,  K. Nanda,  
 C. M. Oana,  R. Olivares-Amaya,  D. P. O'Neill,  J. A. Parkhill,  
 T. M. Perrine,  R. Peverati,  P. A. Pieniazek,  F. Plasser,  A. Prociuk,  
 D. R. Rehn,  E. Rosta,  N. J. Russ,  N. Sergueev,  S. M. Sharada,  
 S. Sharma,  D. W. Small,  A. Sodt,  T. Stauch,  T. Stein,  D. Stuck,  
 Y.-C. Su,  A. J. W. Thom,  T. Tsuchimochi,  L. Vogt,  O. Vydrov,  T. Wang,  
 M. A. Watson,  J. Wenzel,  A. White,  C. F. Williams,  V. Vanovschi,  
 S. Yeganeh,  S. R. Yost,  Z.-Q. You,  I. Y. Zhang,  X. Zhang,  Y. Zhao,  
 B. R. Brooks,  G. K. L. Chan,  D. M. Chipman,  C. J. Cramer,  
 W. A. Goddard III,  M. S. Gordon,  W. J. Hehre,  A. Klamt,  
 H. F. Schaefer III,  M. W. Schmidt,  C. D. Sherrill,  D. G. Truhlar,  
 A. Warshel,  X. Xu,  A. Aspuru-Guzik,  R. Baer,  A. T. Bell,  N. A. Besley,  
 J.-D. Chai,  A. Dreuw,  B. D. Dunietz,  T. R. Furlani,  S. R. Gwaltney,  
 C.-P. Hsu,  Y. Jung,  J. Kong,  D. S. Lambrecht,  W. Liang,  C. Ochsenfeld,  
 V. A. Rassolov,  L. V. Slipchenko,  J. E. Subotnik,  T. Van Voorhis,  
 J. M. Herbert,  A. I. Krylov,  P. M. W. Gill,  M. Head-Gordon

 Contributors to earlier versions of Q-Chem not listed above: 
 R. D. Adamson,  J. Baker,  E. F. C. Byrd,  A. K. Chakraborty,  C.-L. Cheng,  
 H. Dachsel,  R. J. Doerksen,  G. Hawkins,  A. Heyden,  S. Hirata,  
 G. Kedziora,  F. J. Keil,  C. Kelley,  P. P. Korambath,  W. Kurlancheek,  
 A. M. Lee,  M. S. Lee,  D. Liotard,  I. Lotan,  P. E. Maslen,  N. Nair,  
 D. Neuhauser,  R. Olson,  B. Peters,  J. Ritchie,  N. E. Schultz,  
 N. Shenvi,  A. C. Simmonett,  K. S. Thanthiriwatte,  Q. Wu,  W. Zhang

 Please cite Q-Chem as follows:
 Y. Shao et al., Mol. Phys. 113, 184-215 (2014)
 DOI: 10.1080/00268976.2014.952696

 Q-Chem 4.3.0 for Intel X86 EM64T Linux

 Parts of Q-Chem use Armadillo 4.550.3 (Singapore Sling Deluxe).
 http://arma.sourceforge.net/

 Q-Chem begins on Sun Aug 14 23:47:19 2016  

medusa
Host: 0

     Scratch files written to /dev/shm/adutoi/Q-Chem/qchem20358//
 Jun415 |home|group|software|Q-Chem|qchem-4.3|libmdc|qstr_RNUM -1

Checking the input file for inconsistencies...	...done.

--------------------------------------------------------------
User input:
--------------------------------------------------------------
$molecule
0 1
H 0 0 0
H 0 0 0.74
H 0 0 4
H 0 0 4.74
$end

$rem
method	ccsd
basis	3-21g
$end
--------------------------------------------------------------
 ----------------------------------------------------------------
             Standard Nuclear Orientation (Angstroms)
    I     Atom           X                Y                Z
 ----------------------------------------------------------------
    1      H       0.0000000000     0.0000000000    -2.3700000000
    2      H       0.0000000000     0.0000000000    -1.6300000000
    3      H       0.0000000000     0.0000000000     1.6300000000
    4      H       0.0000000000     0.0000000000     2.3700000000
 ----------------------------------------------------------------
 Molecular Point Group                 D2h   NOp =  8
 Largest Abelian Subgroup              D2h   NOp =  8
 Nuclear Repulsion Energy =     1.9687623428 hartrees
 There are        2 alpha and        2 beta electrons
 Requested basis set is 3-21G
 There are 8 shells and 8 basis functions
Total memory of 1801MB is distributed as follows: 
   QALLOC including MEM_STATIC uses 1301MB
   MEM_STATIC is set to 301MB
   CCMAN JOB total memory use is  1500MB
Warning: actual memory use might exceed 1801MB

Total QAlloc Memory Limit   1301 MB
Mega-Array Size       295 MB
MEM_STATIC part       301 MB

                       Distance Matrix (Angstroms)
             H (  1)   H (  2)   H (  3)
   H (  2)  0.740000
   H (  3)  4.000000  3.260000
   H (  4)  4.740000  4.000000  0.740000

 A cutoff of  1.0D-14 yielded     35 shell pairs
 There are        35 function pairs

 -------------------------------------------------------
 OpenMP Integral Computing Module                       
 Release: version 1.0, May 2013, Q-Chem Inc. Pittsburgh 
 -------------------------------------------------------
 Integral Job Info:
 Integral job number is                      11
 Integral operator is                         1
 short-range coefficients               -999999
 long-range coefficients                -999999
 Omega coefficients                           0
 if combine SR and LR in K              -999999
 Integral screening is                        0
 Integral computing path is                   2
 max size of driver memory is            800000
 size of driver memory is                 11780
 size of scratch memory is               800000
 max col of scratch BK array                289
 max len of scratch array in speh3            1
 max len of scratch index in speh4            2
 max int batch size is                      520
 min int batch size is                       52
 fixed nKL is                               520
 max L of basis functions is                  0
 order of int derivative is                   0
 number of shells is                          8
 number of basis is                           8
 number of cartesian basis is                 8
 number of contracted shell pairs            35
 number of primitive shell pairs             71
 maxK2 (contraction) of shell pair            4
 max number of K2 of shell pair               1
 max number of CS2 of shell pair             16
 max number of PS2 of shell pair             32
 mem total for path MDJ                    5144
 -------------------------------------------------------
 Smallest overlap matrix eigenvalue = 9.89E-02

  Scale SEOQF with 1.000000e+00/1.000000e+00/1.000000e-01

 Standard Electronic Orientation quadrupole field applied
 Nucleus-field energy     =    -0.0000000018 hartrees
 Guess from superposition of atomic densities
 Warning:  Energy on first SCF cycle will be non-variational
 A restricted Hartree-Fock SCF calculation will be
 performed using Pulay DIIS extrapolation
 SCF converges when DIIS error is below 1.0E-08
 ---------------------------------------
  Cycle       Energy         DIIS Error
 ---------------------------------------
    1      -1.6856685704      6.48E-02
    2      -2.2440261072      1.23E-02
    3      -2.2458837696      2.35E-04
    4      -2.2458844491      6.59E-06
    5      -2.2458844499      2.01E-07
    6      -2.2458844499      2.75E-08
    7      -2.2458844499      8.32E-10 Convergence criterion met
 ---------------------------------------
 SCF time:  CPU 0.01 s  wall 0.01 s
 SCF   energy in the final basis set = -2.2458844499
 Total energy in the final basis set = -2.2458844499


 ------------------------------------------------------------------------------

   CCMAN2: suite of methods based on coupled cluster
           and equation of motion theories.

   Components:
   * libvmm-1.2-release
     by Evgeny Epifanovsky, Ilya Kaliman.
   * libtensor-2.4-qchem43
     by Evgeny Epifanovsky, Michael Wormit, Dmitry Zuev, Sam Manzer.
   * libcc-2.4-qchem43
     by Evgeny Epifanovsky, Arik Landau, Tomasz Kus, Kirill Khistyaev, 
        Dmitry Zuev, Prashant Manohar, Xintian Feng, Anna Krylov, 
        Matthew Goldey, Alec White, Thomas Jagau, Kaushik Nanda, 
        Anastasia Gunina.

   CCMAN original authors:
   Anna I. Krylov, C. David Sherrill, Steven R. Gwaltney,
   Edward F. C. Byrd (2000)
   Sergey V. Levchenko, Lyudmila V. Slipchenko, Tao Wang,
   Ana-Maria C. Cristian (2003)
   Piotr A. Pieniazek, C. Melania Oana, Evgeny Epifanovsky (2007)
   Prashant Manohar (2009)

 ------------------------------------------------------------------------------


 Calculation will run on 1 core with 1500MB of RAM.


 Alpha MOs, Restricted
 -- Occupied --                  
 -0.595  -0.591
  1 Ag    1 B1u                                                                
 -- Virtual --                   
  0.233   0.296   0.901   0.941   1.488   1.577
  2 Ag    2 B1u   3 Ag    3 B1u   4 Ag    4 B1u                                

 Beta MOs, Restricted
 -- Occupied --                  
 -0.595  -0.591
  1 Ag    1 B1u                                                                
 -- Virtual --                   
  0.233   0.296   0.901   0.941   1.488   1.577
  2 Ag    2 B1u   3 Ag    3 B1u   4 Ag    4 B1u                                

 Occupation and symmetry of molecular orbitals

 Point group: D2h (8 irreducible representations).

                           Ag   B1g  B2g  B3g  Au   B1u  B2u  B3u   All 
 ------------------------------------------------------------------------
 All molecular orbitals:
  - Alpha                  4    0    0    0    0    4    0    0     8   
  - Beta                   4    0    0    0    0    4    0    0     8   
 ------------------------------------------------------------------------
 Alpha orbitals:
  - Frozen occupied        0    0    0    0    0    0    0    0     0   
  - Active occupied        1    0    0    0    0    1    0    0     2   
  - Active virtual         3    0    0    0    0    3    0    0     6   
  - Frozen virtual         0    0    0    0    0    0    0    0     0   
 ------------------------------------------------------------------------
 Beta orbitals:
  - Frozen occupied        0    0    0    0    0    0    0    0     0   
  - Active occupied        1    0    0    0    0    1    0    0     2   
  - Active virtual         3    0    0    0    0    3    0    0     6   
  - Frozen virtual         0    0    0    0    0    0    0    0     0   
 ------------------------------------------------------------------------

 Import integrals:   CPU 0.00 s  wall 0.00 s


 Import integrals:   CPU 0.01 s  wall 0.01 s

 MP2 amplitudes:   CPU 0.00 s  wall 0.00 s

           CCSD T amplitudes will be solved using DIIS.

           Start     Size      MaxIter   EConv     TConv     
           3         7         100       1.0e-06   0.00010   
 ------------------------------------------------------------------------------
           Energy (a.u.)   Ediff      Tdiff       Comment
 ------------------------------------------------------------------------------
            -2.28057916                           
     1      -2.29071848   1.01e-02   1.54e-01     
     2      -2.29394726   3.23e-03   4.77e-02     
     3      -2.29505461   1.11e-03   1.68e-02     
     4      -2.29569423   6.40e-04   9.83e-03     Switched to DIIS steps.
     5      -2.29569572   1.49e-06   5.10e-04     
     6      -2.29569570   2.07e-08   2.15e-05     
 ------------------------------------------------------------------------------
            -2.29569570                           CCSD T converged.

 SCF energy                 = -2.24588445
 MP2 energy                 = -2.28057916
 CCSD correlation energy    = -0.04981125
 CCSD total energy          = -2.29569570

 CCSD  T1^2 = 0.0001  T2^2 = 0.0292.  Leading amplitudes:

 Amplitude    Orbitals with energies
 -0.0057       1 (B1u) A                 ->    3 (B1u) A                  
              -0.5914                          0.9407                     
 -0.0057       1 (B1u) B                 ->    3 (B1u) B                  
              -0.5914                          0.9407                     
  0.0057       1 (Ag) A                  ->    3 (Ag) A                   
              -0.5954                          0.9013                     
  0.0057       1 (Ag) B                  ->    3 (Ag) B                   
              -0.5954                          0.9013                     

 Amplitude    Orbitals with energies
 -0.0443       1 (B1u) A     1 (B1u) B   ->    2 (B1u) A     2 (B1u) B    
              -0.5914       -0.5914            0.2958        0.2958       
  0.0443       1 (B1u) A     1 (B1u) B   ->    2 (B1u) B     2 (B1u) A    
              -0.5914       -0.5914            0.2958        0.2958       
  0.0443       1 (B1u) B     1 (B1u) A   ->    2 (B1u) A     2 (B1u) B    
              -0.5914       -0.5914            0.2958        0.2958       
 -0.0443       1 (B1u) B     1 (B1u) A   ->    2 (B1u) B     2 (B1u) A    
              -0.5914       -0.5914            0.2958        0.2958       

 CCSD calculation:   CPU 0.73 s  wall 0.70 s

 Total ccman2 time:   CPU 1.62 s  wall 1.56 s

 Analysis of SCF Wavefunction

 --------------------------------------------------------------
             Orbital Energies (a.u.) and Symmetries
 --------------------------------------------------------------

 Alpha MOs, Restricted
 -- Occupied --                  
 -0.595  -0.591
  1 Ag    1 B1u                                                                
 -- Virtual --                   
  0.233   0.296   0.901   0.941   1.488   1.577
  2 Ag    2 B1u   3 Ag    3 B1u   4 Ag    4 B1u                                

 Beta MOs, Restricted
 -- Occupied --                  
 -0.595  -0.591
  1 Ag    1 B1u                                                                
 -- Virtual --                   
  0.233   0.296   0.901   0.941   1.488   1.577
  2 Ag    2 B1u   3 Ag    3 B1u   4 Ag    4 B1u                                
 --------------------------------------------------------------

          Ground-State Mulliken Net Atomic Charges

     Atom                 Charge (a.u.)
  ----------------------------------------
      1 H                     0.001385
      2 H                    -0.001385
      3 H                    -0.001385
      4 H                     0.001385
  ----------------------------------------
  Sum of atomic charges =    -0.000000

 -----------------------------------------------------------------
                    Cartesian Multipole Moments
 -----------------------------------------------------------------
    Charge (ESU x 10^10)
                -0.0000
    Dipole Moment (Debye)
         X       0.0000      Y       0.0000      Z       0.0000
       Tot       0.0000
    Quadrupole Moments (Debye-Ang)
        XX      -4.0024     XY       0.0000     YY      -4.0024
        XZ       0.0000     YZ       0.0000     ZZ      -3.1034
    Octopole Moments (Debye-Ang^2)
       XXX       0.0000    XXY       0.0000    XYY       0.0000
       YYY       0.0000    XXZ       0.0000    XYZ       0.0000
       YYZ       0.0000    XZZ       0.0000    YZZ       0.0000
       ZZZ       0.0000
    Hexadecapole Moments (Debye-Ang^3)
      XXXX      -3.5191   XXXY       0.0000   XXYY      -1.1730
      XYYY       0.0000   YYYY      -3.5191   XXXZ       0.0000
      XXYZ       0.0000   XYYZ       0.0000   YYYZ       0.0000
      XXZZ     -17.5045   XYZZ       0.0000   YYZZ     -17.5045
      XZZZ       0.0000   YZZZ       0.0000   ZZZZ     -80.4826
 -----------------------------------------------------------------
Archival summary:
1\1\medusa\SP\ProcedureUnspecified\3-21G\4\adutoi\SunAug1423:47:212016SunAug1423:47:212016\0\\#,ProcedureUnspecified,3-21G,\\0,1\H\H,1,0.74\H,1,3.26,2,180\H,3,0.74,1,180,2,0,0\\HF=-2.24588445\\@

 Total job time:  1.86s(wall), 1.92s(cpu) 
 Sun Aug 14 23:47:21 2016

        *************************************************************
        *                                                           *
        *  Thank you very much for using Q-Chem.  Have a nice day.  *
        *                                                           *
        *************************************************************


