    -----------------------------------------------------------------------
          Psi4: An Open-Source Ab Initio Electronic Structure Package
                              Psi4 1.0.0 Driver

                          Git: Rev {master} 6a9a71b dirty

    J. M. Turney, A. C. Simmonett, R. M. Parrish, E. G. Hohenstein,
    F. A. Evangelista, J. T. Fermann, B. J. Mintz, L. A. Burns, J. J. Wilke,
    M. L. Abrams, N. J. Russ, M. L. Leininger, C. L. Janssen, E. T. Seidl,
    W. D. Allen, H. F. Schaefer, R. A. King, E. F. Valeev, C. D. Sherrill,
    and T. D. Crawford, WIREs Comput. Mol. Sci. 2, 556-565 (2012)
    (doi: 10.1002/wcms.93)

                         Additional Contributions by
    A. E. DePrince, U. Bozkaya, A. Yu. Sokolov, D. G. A. Smith, R. Di Remigio,
    R. M. Richard, J. F. Gonthier, H. R. McAlexander, M. Saitow, and
    B. P. Pritchard
    -----------------------------------------------------------------------


    Psi4 started on: Mon Jan  8 19:36:19 2018

    Process ID:  29652
    PSI4DATADIR: /home/yhliu/psi4conda/share/psi4
    Memory level set to 256.000 MB

  ==> Input File <==

--------------------------------------------------------------------------
memory 24 Gb
molecule beN {
0 1
Be   0.0    0.0 0.0
Be   4.5    0.0 0.0
Be   9.0    0.0 0.0
Be  13.5    0.0 0.0
Be  18.0    0.0 0.0
units angstrom    
}

set basis 6-31g
set freeze_core true
set PRINT_BASIS True
set PUREAM False
set E_CONVERGENCE 1e-10
energy('ccsd(t)')
--------------------------------------------------------------------------
/home/yhliu/psi4conda/lib/python2.7/site-packages/v2rdm_casscf/v2rdm_casscf.so loaded.

  Memory set to  24.000 GiB by Python script.

*** tstart() called on chemistry.org
*** at Mon Jan  8 19:36:19 2018


         ---------------------------------------------------------
                                   SCF
            by Justin Turney, Rob Parrish, and Andy Simmonett
                              RHF Reference
                        1 Threads,  24000 MiB Core
         ---------------------------------------------------------

  ==> Geometry <==

    Molecular point group: d2h
    Full point group: D_inf_h

    Geometry (in Angstrom), charge = 0, multiplicity = 1:

       Center              X                  Y                   Z               Mass       
    ------------   -----------------  -----------------  -----------------  -----------------
          BE         -9.000000000000    -0.000000000000     0.000000000000     9.012182201000
          BE         -4.500000000000    -0.000000000000     0.000000000000     9.012182201000
          BE          0.000000000000    -0.000000000000     0.000000000000     9.012182201000
          BE          4.500000000000     0.000000000000     0.000000000000     9.012182201000
          BE          9.000000000000     0.000000000000     0.000000000000     9.012182201000

  Running in d2h symmetry.

  Rotational constants: A = ************  B =      0.00924  C =      0.00924 [cm^-1]
  Rotational constants: A = ************  B =    276.92503  C =    276.92503 [MHz]
  Nuclear repulsion =   12.073080018201482

  Charge       = 0
  Multiplicity = 1
  Electrons    = 20
  Nalpha       = 10
  Nbeta        = 10

  ==> Algorithm <==

  SCF Algorithm Type is PK.
  DIIS enabled.
  MOM disabled.
  Fractional occupation disabled.
  Guess Type is SAD.
  Energy threshold   = 1.00e-10
  Density threshold  = 1.00e-08
  Integral threshold = 0.00e+00

  ==> Primary Basis <==

  Basis Set: 6-31G
    Number of shells: 25
    Number of basis function: 45
    Number of Cartesian functions: 45
    Spherical Harmonics?: false
    Max angular momentum: 1

  -AO BASIS SET INFORMATION:
    Name                   = 6-31G
    Total number of shells = 25
    Number of primitives   = 70
    Number of AO           = 45
    Number of SO           = 45
    Maximum AM             = 1
    Spherical Harmonics    = FALSE

  -Contraction Scheme:
    Atom   Type   All Primitives // Shells:
   ------ ------ --------------------------
       1    BE     10s 4p // 3s 2p 
       2    BE     10s 4p // 3s 2p 
       3    BE     10s 4p // 3s 2p 
       4    BE     10s 4p // 3s 2p 
       5    BE     10s 4p // 3s 2p 

  ==> AO Basis Functions <==

    [ 6-31G ]
    cartesian
    ****
   BE   1
    S   6 1.00
                      1264.58570000           0.00194480
                       189.93681000           0.01483510
                        43.15908900           0.07209060
                        12.09866300           0.23715420
                         3.80632320           0.46919870
                         1.27289030           0.35652020
    S   3 1.00
                         3.19646310          -0.11264870
                         0.74781330          -0.22950640
                         0.21996630           1.18691670
    P   3 1.00
                         3.19646310           0.05598020
                         0.74781330           0.26155060
                         0.21996630           0.79397230
    S   1 1.00
                         0.08230990           1.00000000
    P   1 1.00
                         0.08230990           1.00000000
    ****
   BE   2
    S   6 1.00
                      1264.58570000           0.00194480
                       189.93681000           0.01483510
                        43.15908900           0.07209060
                        12.09866300           0.23715420
                         3.80632320           0.46919870
                         1.27289030           0.35652020
    S   3 1.00
                         3.19646310          -0.11264870
                         0.74781330          -0.22950640
                         0.21996630           1.18691670
    P   3 1.00
                         3.19646310           0.05598020
                         0.74781330           0.26155060
                         0.21996630           0.79397230
    S   1 1.00
                         0.08230990           1.00000000
    P   1 1.00
                         0.08230990           1.00000000
    ****
   BE   3
    S   6 1.00
                      1264.58570000           0.00194480
                       189.93681000           0.01483510
                        43.15908900           0.07209060
                        12.09866300           0.23715420
                         3.80632320           0.46919870
                         1.27289030           0.35652020
    S   3 1.00
                         3.19646310          -0.11264870
                         0.74781330          -0.22950640
                         0.21996630           1.18691670
    P   3 1.00
                         3.19646310           0.05598020
                         0.74781330           0.26155060
                         0.21996630           0.79397230
    S   1 1.00
                         0.08230990           1.00000000
    P   1 1.00
                         0.08230990           1.00000000
    ****

  ==> Pre-Iterations <==

   -------------------------------------------------------
    Irrep   Nso     Nmo     Nalpha   Nbeta   Ndocc  Nsocc
   -------------------------------------------------------
     Ag        13      13       0       0       0       0
     B1g        4       4       0       0       0       0
     B2g        4       4       0       0       0       0
     B3g        0       0       0       0       0       0
     Au         0       0       0       0       0       0
     B1u        6       6       0       0       0       0
     B2u        6       6       0       0       0       0
     B3u       12      12       0       0       0       0
   -------------------------------------------------------
    Total      45      45      10      10      10       0
   -------------------------------------------------------

  ==> Integral Setup <==

  Using in-core PK algorithm.
   Calculation information:
      Number of atoms:                   5
      Number of AO shells:              25
      Number of primitives:             70
      Number of atomic orbitals:        45
      Number of basis functions:        45

      Integral cutoff                 1.00e-12
      Number of threads:                 1

  Performing in-core PK
  Using 1072260 doubles for integral storage.
  We computed 22452 shell quartets total.
  Whereas there are 52975 unique shell quartets.
  ==> DiskJK: Disk-Based J/K Matrices <==

    J tasked:                  Yes
    K tasked:                  Yes
    wK tasked:                  No
    Memory (MB):             17166
    Schwarz Cutoff:          1E-12

    OpenMP threads:              1
  Minimum eigenvalue in the overlap matrix is 1.0072846617E-01.
  Using Symmetric Orthogonalization.
  SCF Guess: Superposition of Atomic Densities via on-the-fly atomic UHF.

  ==> Iterations <==

                        Total Energy        Delta E     RMS |[F,P]|

   @RHF iter   0:   -72.83743650005427   -7.28374e+01   1.64137e-03 
   @RHF iter   1:   -72.83469443308039    2.74207e-03   3.62565e-04 
   @RHF iter   2:   -72.83486581010730   -1.71377e-04   1.18715e-04 DIIS
   @RHF iter   3:   -72.83488785961585   -2.20495e-05   6.50319e-06 DIIS
   @RHF iter   4:   -72.83488790618276   -4.65669e-08   5.28465e-07 DIIS
   @RHF iter   5:   -72.83488790640507   -2.22315e-10   6.68653e-08 DIIS
   @RHF iter   6:   -72.83488790640926   -4.19220e-12   6.52896e-09 DIIS

  ==> Post-Iterations <==

    Orbital Energies (a.u.)
    -----------------------

    Doubly Occupied:                                                      

       1B3u   -4.708081     1Ag    -4.708080     2Ag    -4.708005  
       2B3u   -4.707394     3Ag    -4.707394     4Ag    -0.315790  
       3B3u   -0.310246     5Ag    -0.302026     4B3u   -0.293039  
       6Ag    -0.285775  

    Virtual:                                                              

       5B3u    0.043301     7Ag     0.060937     1B2u    0.069745  
       1B1u    0.069745     1B2g    0.074899     1B1g    0.074899  
       2B2u    0.082291     2B1u    0.082291     6B3u    0.087928  
       2B2g    0.089982     2B1g    0.089982     3B2u    0.095854  
       3B1u    0.095854     8Ag     0.120168     7B3u    0.149081  
       9Ag     0.399833     8B3u    0.411167    10Ag     0.426698  
       9B3u    0.443840     4B2u    0.444865     4B1u    0.444865  
       3B2g    0.452367     3B1g    0.452367    11Ag     0.460192  
       5B2u    0.464490     5B1u    0.464490    10B3u    0.465596  
       4B2g    0.479234     4B1g    0.479234     6B2u    0.492213  
       6B1u    0.492213    12Ag     0.532339    11B3u    0.554970  
      13Ag     0.589242    12B3u    0.634498  

    Final Occupation by Irrep:
             Ag   B1g   B2g   B3g    Au   B1u   B2u   B3u 
    DOCC [     6,    0,    0,    0,    0,    0,    0,    4 ]

  Energy converged.

  @RHF Final Energy:   -72.83488790640926

   => Energetics <=

    Nuclear Repulsion Energy =             12.0730800182014821
    One-Electron Energy =                -119.7242759682363271
    Two-Electron Energy =                  34.8163080436255754
    DFT Exchange-Correlation Energy =       0.0000000000000000
    Empirical Dispersion Energy =           0.0000000000000000
    PCM Polarization Energy =               0.0000000000000000
    EFP Energy =                            0.0000000000000000
    Total Energy =                        -72.8348879064092785


  Saving occupied orbitals to File 180.

*** tstop() called on chemistry.org at Mon Jan  8 19:36:19 2018
Module time:
	user time   =       0.23 seconds =       0.00 minutes
	system time =       0.01 seconds =       0.00 minutes
	total time  =          0 seconds =       0.00 minutes
Total time:
	user time   =       0.23 seconds =       0.00 minutes
	system time =       0.01 seconds =       0.00 minutes
	total time  =          0 seconds =       0.00 minutes


Properties will be evaluated at   0.000000,   0.000000,   0.000000 Bohr

Properties computed using the SCF density matrix

  Nuclear Dipole Moment: (a.u.)
     X:     0.0000      Y:    -0.0000      Z:     0.0000

  Electronic Dipole Moment: (a.u.)
     X:     0.0000      Y:     0.0000      Z:     0.0000

  Dipole Moment: (a.u.)
     X:     0.0000      Y:    -0.0000      Z:     0.0000     Total:     0.0000

  Dipole Moment: (Debye)
     X:     0.0000      Y:    -0.0000      Z:     0.0000     Total:     0.0000

 MINTS: Wrapper to libmints.
   by Justin Turney

   Calculation information:
      Number of atoms:                   5
      Number of AO shells:              25
      Number of SO shells:              15
      Number of primitives:             70
      Number of atomic orbitals:        45
      Number of basis functions:        45

      Number of irreps:                  8
      Integral cutoff                 0.00e+00
      Number of functions per irrep: [  13    4    4    0    0    6    6   12 ]

 OEINTS: Overlap, kinetic, potential, dipole, and quadrupole integrals
         stored in file 35.

      Computing two-electron integrals...done
      Computed 81762 non-zero two-electron integrals.
        Stored in file 33.


*** tstart() called on chemistry.org
*** at Mon Jan  8 19:36:19 2018


	Wfn Parameters:
	--------------------
	Wavefunction         = CCSD_T
	Number of irreps     = 8
	Number of MOs        = 45
	Number of active MOs = 40
	AO-Basis             = NONE
	Semicanonical        = false
	Reference            = RHF
	Print Level          = 1

	IRREP	# MOs	# FZDC	# DOCC	# SOCC	# VIRT	# FZVR
	-----	-----	------	------	------	------	------
	 Ag	   13	    3	    3	    0	    7	    0
	 B1g	   4	    0	    0	    0	    4	    0
	 B2g	   4	    0	    0	    0	    4	    0
	 B3g	   0	    0	    0	    0	    0	    0
	 Au	   0	    0	    0	    0	    0	    0
	 B1u	   6	    0	    0	    0	    6	    0
	 B2u	   6	    0	    0	    0	    6	    0
	 B3u	   12	    2	    2	    0	    8	    0
	Transforming integrals...
	IWL integrals will be deleted.
	(OO|OO)...
	Presorting SO-basis two-electron integrals.
	Sorting File: SO Ints (nn|nn) nbuckets = 1
	Transforming the one-electron integrals and constructing Fock matrices
	Starting first half-transformation.
	Sorting half-transformed integrals.
	First half integral transformation complete.
	Starting second half-transformation.
	Two-electron integral transformation complete.
	(OO|OV)...
	Starting second half-transformation.
	Two-electron integral transformation complete.
	(OO|VV)...
	Starting second half-transformation.
	Two-electron integral transformation complete.
	(OV|OO)...
	Starting first half-transformation.
	Sorting half-transformed integrals.
	First half integral transformation complete.
	Starting second half-transformation.
	Two-electron integral transformation complete.
	(OV|OV)...
	Starting second half-transformation.
	Two-electron integral transformation complete.
	(OV|VV)...
	Starting second half-transformation.
	Two-electron integral transformation complete.
	(VV|OO)...
	Starting first half-transformation.
	Sorting half-transformed integrals.
	First half integral transformation complete.
	Starting second half-transformation.
	Two-electron integral transformation complete.
	(VV|OV)...
	Starting second half-transformation.
	Two-electron integral transformation complete.
	(VV|VV)...
	Starting second half-transformation.
	Two-electron integral transformation complete.
	Frozen core energy     =    -77.10333177890261

	Size of irrep 0 of <ab|cd> integrals:      0.047 (MW) /      0.377 (MB)
	Size of irrep 1 of <ab|cd> integrals:      0.023 (MW) /      0.185 (MB)
	Size of irrep 2 of <ab|cd> integrals:      0.023 (MW) /      0.185 (MB)
	Size of irrep 3 of <ab|cd> integrals:      0.011 (MW) /      0.087 (MB)
	Size of irrep 4 of <ab|cd> integrals:      0.009 (MW) /      0.074 (MB)
	Size of irrep 5 of <ab|cd> integrals:      0.022 (MW) /      0.175 (MB)
	Size of irrep 6 of <ab|cd> integrals:      0.022 (MW) /      0.175 (MB)
	Size of irrep 7 of <ab|cd> integrals:      0.043 (MW) /      0.346 (MB)
	Total:                                     0.200 (MW) /      1.603 (MB)

	Size of irrep 0 of <ia|bc> integrals:      0.008 (MW) /      0.064 (MB)
	Size of irrep 1 of <ia|bc> integrals:      0.004 (MW) /      0.029 (MB)
	Size of irrep 2 of <ia|bc> integrals:      0.004 (MW) /      0.029 (MB)
	Size of irrep 3 of <ia|bc> integrals:      0.000 (MW) /      0.000 (MB)
	Size of irrep 4 of <ia|bc> integrals:      0.000 (MW) /      0.000 (MB)
	Size of irrep 5 of <ia|bc> integrals:      0.004 (MW) /      0.031 (MB)
	Size of irrep 6 of <ia|bc> integrals:      0.004 (MW) /      0.031 (MB)
	Size of irrep 7 of <ia|bc> integrals:      0.008 (MW) /      0.063 (MB)
	Total:                                     0.031 (MW) /      0.247 (MB)

	Size of irrep 0 of tijab amplitudes:       0.003 (MW) /      0.023 (MB)
	Size of irrep 1 of tijab amplitudes:       0.000 (MW) /      0.000 (MB)
	Size of irrep 2 of tijab amplitudes:       0.000 (MW) /      0.000 (MB)
	Size of irrep 3 of tijab amplitudes:       0.000 (MW) /      0.000 (MB)
	Size of irrep 4 of tijab amplitudes:       0.000 (MW) /      0.000 (MB)
	Size of irrep 5 of tijab amplitudes:       0.000 (MW) /      0.000 (MB)
	Size of irrep 6 of tijab amplitudes:       0.000 (MW) /      0.000 (MB)
	Size of irrep 7 of tijab amplitudes:       0.002 (MW) /      0.020 (MB)
	Total:                                     0.005 (MW) /      0.043 (MB)

	Nuclear Rep. energy          =     12.07308001820148
	SCF energy                   =    -72.83488790640926
	One-electron energy          =    -12.59552155629965
	Two-electron energy          =      4.79088541059094
	Reference energy             =    -72.83488790640985

*** tstop() called on chemistry.org at Mon Jan  8 19:36:19 2018
Module time:
	user time   =       0.03 seconds =       0.00 minutes
	system time =       0.03 seconds =       0.00 minutes
	total time  =          0 seconds =       0.00 minutes
Total time:
	user time   =       0.41 seconds =       0.01 minutes
	system time =       0.04 seconds =       0.00 minutes
	total time  =          0 seconds =       0.00 minutes

*** tstart() called on chemistry.org
*** at Mon Jan  8 19:36:19 2018

            **************************
            *                        *
            *        CCENERGY        *
            *                        *
            **************************

    Nuclear Rep. energy (wfn)     =   12.073080018201482
    SCF energy          (wfn)     =  -72.834887906409264
    Reference energy    (file100) =  -72.834887906409847

    Input parameters:
    -----------------
    Wave function   =     CCSD_T
    Reference wfn   =     RHF
    Brueckner       =     No
    Memory (Mbytes) =     24000.0
    Maxiter         =     50
    R_Convergence   =     1.0e-07
    E_Convergence   =     1.0e-10
    Restart         =     Yes
    DIIS            =     Yes
    AO Basis        =     NONE
    ABCD            =     NEW
    Cache Level     =     2
    Cache Type      =     LOW
    Print Level     =     1
    Num. of threads =     1
    # Amps to Print =     10
    Print MP2 Amps? =     No
    Analyze T2 Amps =     No
    Print Pair Ener =     No
    Local CC        =     No
    SCS-MP2         =     False
    SCSN-MP2        =     False
    SCS-CCSD        =     False

MP2 correlation energy -0.1181666351333832
                Solving CC Amplitude Equations
                ------------------------------
  Iter             Energy              RMS        T1Diag      D1Diag    New D1Diag    D2Diag
  ----     ---------------------    ---------   ----------  ----------  ----------   --------
     0        -0.118166635133378    0.000e+00    0.000000    0.000000    0.000000    0.167069
     1        -0.174406689859353    1.866e-01    0.004474    0.006703    0.006703    0.251128
     2        -0.229731054512899    9.766e-02    0.011941    0.018346    0.018346    0.338750
     3        -0.228541306813653    8.400e-03    0.013046    0.020311    0.020311    0.338292
     4        -0.229657373980908    2.522e-03    0.013307    0.020797    0.020797    0.340107
     5        -0.229917108958593    4.997e-04    0.013388    0.020966    0.020966    0.340512
     6        -0.229745500552454    3.351e-04    0.013364    0.020930    0.020930    0.340238
     7        -0.229723737127204    4.033e-05    0.013362    0.020928    0.020928    0.340206
     8        -0.229732479432911    2.713e-05    0.013364    0.020931    0.020931    0.340221
     9        -0.229735679782948    8.465e-06    0.013364    0.020931    0.020931    0.340226
    10        -0.229735617755624    4.038e-06    0.013364    0.020931    0.020931    0.340227
    11        -0.229735519162152    2.407e-06    0.013364    0.020931    0.020931    0.340227
    12        -0.229735529096036    8.331e-07    0.013364    0.020931    0.020931    0.340227
    13        -0.229735545320381    4.271e-07    0.013364    0.020931    0.020931    0.340227
    14        -0.229735548534107    1.628e-07    0.013364    0.020931    0.020931    0.340227
    15        -0.229735548659993    7.074e-08    0.013364    0.020931    0.020931    0.340227
    16        -0.229735546988659    3.560e-08    0.013364    0.020931    0.020931    0.340227
    17        -0.229735546487108    1.213e-08    0.013364    0.020931    0.020931    0.340227
    18        -0.229735546206326    3.184e-09    0.013364    0.020931    0.020931    0.340227
    19        -0.229735546114278    1.512e-09    0.013364    0.020931    0.020931    0.340227
    20        -0.229735546130928    8.301e-10    0.013364    0.020931    0.020931    0.340227

    Iterations converged.


    Largest TIA Amplitudes:
              0   2         0.0172313624
              3  30         0.0156692145
              1   3         0.0136574790
              2   5        -0.0114203913
              4  31        -0.0110699682
              4  28         0.0109373975
              1   1         0.0101440994
              1   0         0.0094277822
              3  28        -0.0087938889
              4  33        -0.0083234845

    Largest TIjAb Amplitudes:
      1   1  16  16        -0.0570436853
      1   1  22  22        -0.0570436853
      1   1  28  28        -0.0552660020
      0   0  27  27        -0.0504191049
      0   2  27  29         0.0473264321
      2   0  29  27         0.0473264321
      3   3   0   0        -0.0472167054
      2   2  17  17        -0.0471563908
      2   2  23  23        -0.0471563908
      4   4   8   8        -0.0456250379

    SCF energy       (wfn)                    =  -72.834887906409264
    Reference energy (file100)                =  -72.834887906409847

    Opposite-spin MP2 correlation energy      =   -0.116977949439316
    Same-spin MP2 correlation energy          =   -0.001188685694062
    MP2 correlation energy                    =   -0.118166635133383
      * MP2 total energy                      =  -72.953054541543224

    Opposite-spin CCSD correlation energy     =   -0.228464207789955
    Same-spin CCSD correlation energy         =   -0.001271339422483
    CCSD correlation energy                   =   -0.229735546130928
      * CCSD total energy                     =  -73.064623452540772


*** tstop() called on chemistry.org at Mon Jan  8 19:36:20 2018
Module time:
	user time   =       0.13 seconds =       0.00 minutes
	system time =       0.13 seconds =       0.00 minutes
	total time  =          1 seconds =       0.02 minutes
Total time:
	user time   =       0.54 seconds =       0.01 minutes
	system time =       0.17 seconds =       0.00 minutes
	total time  =          1 seconds =       0.02 minutes

*** tstart() called on chemistry.org
*** at Mon Jan  8 19:36:20 2018

            **************************
            *                        *
            *        CCTRIPLES       *
            *                        *
            **************************


    Wave function   =    CCSD_T
    Reference wfn   =      RHF

    Nuclear Rep. energy (wfn)                =   12.073080018201482
    SCF energy          (wfn)                =  -72.834887906409264
    Reference energy    (file100)            =  -72.834887906409847
    CCSD energy         (file100)            =   -0.229735546130928
    Total CCSD energy   (file100)            =  -73.064623452540772

    Number of ijk index combinations:               35
    Memory available in words        :      3000000000
    ~Words needed per explicit thread:            2048
    Number of threads for explicit ijk threading:    1

    (T) energy                                =   -0.000259614110040
      * CCSD(T) total energy                  =  -73.064883066650822


*** tstop() called on chemistry.org at Mon Jan  8 19:36:20 2018
Module time:
	user time   =       0.03 seconds =       0.00 minutes
	system time =       0.01 seconds =       0.00 minutes
	total time  =          0 seconds =       0.00 minutes
Total time:
	user time   =       0.57 seconds =       0.01 minutes
	system time =       0.18 seconds =       0.00 minutes
	total time  =          1 seconds =       0.02 minutes

*** Psi4 exiting successfully. Buy a developer a beer!
