    -----------------------------------------------------------------------
          Psi4: An Open-Source Ab Initio Electronic Structure Package
                              Psi4 1.0.0 Driver

                          Git: Rev {master} 6a9a71b dirty

    J. M. Turney, A. C. Simmonett, R. M. Parrish, E. G. Hohenstein,
    F. A. Evangelista, J. T. Fermann, B. J. Mintz, L. A. Burns, J. J. Wilke,
    M. L. Abrams, N. J. Russ, M. L. Leininger, C. L. Janssen, E. T. Seidl,
    W. D. Allen, H. F. Schaefer, R. A. King, E. F. Valeev, C. D. Sherrill,
    and T. D. Crawford, WIREs Comput. Mol. Sci. 2, 556-565 (2012)
    (doi: 10.1002/wcms.93)

                         Additional Contributions by
    A. E. DePrince, U. Bozkaya, A. Yu. Sokolov, D. G. A. Smith, R. Di Remigio,
    R. M. Richard, J. F. Gonthier, H. R. McAlexander, M. Saitow, and
    B. P. Pritchard
    -----------------------------------------------------------------------


    Psi4 started on: Mon Jan  8 19:36:17 2018

    Process ID:  29640
    PSI4DATADIR: /home/yhliu/psi4conda/share/psi4
    Memory level set to 256.000 MB

  ==> Input File <==

--------------------------------------------------------------------------
memory 24 Gb
molecule beN {
0 1
Be   0.0    0.0 0.0
Be   4.5    0.0 0.0
Be   9.0    0.0 0.0
Be  13.5    0.0 0.0
units angstrom    
}

set basis 6-31g
set freeze_core true
set PRINT_BASIS True
set PUREAM False
set E_CONVERGENCE 1e-10
energy('ccsd(t)')
--------------------------------------------------------------------------
/home/yhliu/psi4conda/lib/python2.7/site-packages/v2rdm_casscf/v2rdm_casscf.so loaded.

  Memory set to  24.000 GiB by Python script.

*** tstart() called on chemistry.org
*** at Mon Jan  8 19:36:17 2018


         ---------------------------------------------------------
                                   SCF
            by Justin Turney, Rob Parrish, and Andy Simmonett
                              RHF Reference
                        1 Threads,  24000 MiB Core
         ---------------------------------------------------------

  ==> Geometry <==

    Molecular point group: d2h
    Full point group: D_inf_h

    Geometry (in Angstrom), charge = 0, multiplicity = 1:

       Center              X                  Y                   Z               Mass       
    ------------   -----------------  -----------------  -----------------  -----------------
          BE         -6.750000000000    -0.000000000000     0.000000000000     9.012182201000
          BE         -2.250000000000    -0.000000000000     0.000000000000     9.012182201000
          BE          2.250000000000     0.000000000000     0.000000000000     9.012182201000
          BE          6.750000000000     0.000000000000     0.000000000000     9.012182201000

  Running in d2h symmetry.

  Rotational constants: A = ************  B =      0.01847  C =      0.01847 [cm^-1]
  Rotational constants: A = ************  B =    553.85005  C =    553.85005 [MHz]
  Nuclear repulsion =    8.153248843460739

  Charge       = 0
  Multiplicity = 1
  Electrons    = 16
  Nalpha       = 8
  Nbeta        = 8

  ==> Algorithm <==

  SCF Algorithm Type is PK.
  DIIS enabled.
  MOM disabled.
  Fractional occupation disabled.
  Guess Type is SAD.
  Energy threshold   = 1.00e-10
  Density threshold  = 1.00e-08
  Integral threshold = 0.00e+00

  ==> Primary Basis <==

  Basis Set: 6-31G
    Number of shells: 20
    Number of basis function: 36
    Number of Cartesian functions: 36
    Spherical Harmonics?: false
    Max angular momentum: 1

  -AO BASIS SET INFORMATION:
    Name                   = 6-31G
    Total number of shells = 20
    Number of primitives   = 56
    Number of AO           = 36
    Number of SO           = 36
    Maximum AM             = 1
    Spherical Harmonics    = FALSE

  -Contraction Scheme:
    Atom   Type   All Primitives // Shells:
   ------ ------ --------------------------
       1    BE     10s 4p // 3s 2p 
       2    BE     10s 4p // 3s 2p 
       3    BE     10s 4p // 3s 2p 
       4    BE     10s 4p // 3s 2p 

  ==> AO Basis Functions <==

    [ 6-31G ]
    cartesian
    ****
   BE   1
    S   6 1.00
                      1264.58570000           0.00194480
                       189.93681000           0.01483510
                        43.15908900           0.07209060
                        12.09866300           0.23715420
                         3.80632320           0.46919870
                         1.27289030           0.35652020
    S   3 1.00
                         3.19646310          -0.11264870
                         0.74781330          -0.22950640
                         0.21996630           1.18691670
    P   3 1.00
                         3.19646310           0.05598020
                         0.74781330           0.26155060
                         0.21996630           0.79397230
    S   1 1.00
                         0.08230990           1.00000000
    P   1 1.00
                         0.08230990           1.00000000
    ****
   BE   2
    S   6 1.00
                      1264.58570000           0.00194480
                       189.93681000           0.01483510
                        43.15908900           0.07209060
                        12.09866300           0.23715420
                         3.80632320           0.46919870
                         1.27289030           0.35652020
    S   3 1.00
                         3.19646310          -0.11264870
                         0.74781330          -0.22950640
                         0.21996630           1.18691670
    P   3 1.00
                         3.19646310           0.05598020
                         0.74781330           0.26155060
                         0.21996630           0.79397230
    S   1 1.00
                         0.08230990           1.00000000
    P   1 1.00
                         0.08230990           1.00000000
    ****

  ==> Pre-Iterations <==

   -------------------------------------------------------
    Irrep   Nso     Nmo     Nalpha   Nbeta   Ndocc  Nsocc
   -------------------------------------------------------
     Ag        10      10       0       0       0       0
     B1g        4       4       0       0       0       0
     B2g        4       4       0       0       0       0
     B3g        0       0       0       0       0       0
     Au         0       0       0       0       0       0
     B1u        4       4       0       0       0       0
     B2u        4       4       0       0       0       0
     B3u       10      10       0       0       0       0
   -------------------------------------------------------
    Total      36      36       8       8       8       0
   -------------------------------------------------------

  ==> Integral Setup <==

  Using in-core PK algorithm.
   Calculation information:
      Number of atoms:                   4
      Number of AO shells:              20
      Number of primitives:             56
      Number of atomic orbitals:        36
      Number of basis functions:        36

      Integral cutoff                 1.00e-12
      Number of threads:                 1

  Performing in-core PK
  Using 444222 doubles for integral storage.
  We computed 12695 shell quartets total.
  Whereas there are 22155 unique shell quartets.
  ==> DiskJK: Disk-Based J/K Matrices <==

    J tasked:                  Yes
    K tasked:                  Yes
    wK tasked:                  No
    Memory (MB):             17166
    Schwarz Cutoff:          1E-12

    OpenMP threads:              1
  Minimum eigenvalue in the overlap matrix is 1.0095464088E-01.
  Using Symmetric Orthogonalization.
  SCF Guess: Superposition of Atomic Densities via on-the-fly atomic UHF.

  ==> Iterations <==

                        Total Energy        Delta E     RMS |[F,P]|

   @RHF iter   0:   -58.26976838265940   -5.82698e+01   1.78922e-03 
   @RHF iter   1:   -58.26771599296942    2.05239e-03   3.94343e-04 
   @RHF iter   2:   -58.26784396553145   -1.27973e-04   1.28632e-04 DIIS
   @RHF iter   3:   -58.26786031379628   -1.63483e-05   7.31324e-06 DIIS
   @RHF iter   4:   -58.26786035092301   -3.71267e-08   6.63554e-07 DIIS
   @RHF iter   5:   -58.26786035115359   -2.30585e-10   7.31696e-08 DIIS
   @RHF iter   6:   -58.26786035115678   -3.18323e-12   5.34824e-09 DIIS

  ==> Post-Iterations <==

    Orbital Energies (a.u.)
    -----------------------

    Doubly Occupied:                                                      

       1B3u   -4.708124     1Ag    -4.708121     2B3u   -4.707412  
       2Ag    -4.707411     3Ag    -0.314970     3B3u   -0.307141  
       4Ag    -0.296523     4B3u   -0.286967  

    Virtual:                                                              

       5Ag     0.045744     5B3u    0.070304     1B1u    0.070497  
       1B2u    0.070497     1B1g    0.077683     1B2g    0.077683  
       2B1u    0.087008     2B2u    0.087008     2B1g    0.094892  
       2B2g    0.094892     6Ag     0.106509     6B3u    0.143957  
       7Ag     0.401967     7B3u    0.417750     8Ag     0.437705  
       3B1u    0.445939     3B2u    0.445939     3B2g    0.456752  
       3B1g    0.456752     8B3u    0.458073     9Ag     0.466002  
       4B1u    0.473271     4B2u    0.473271     4B2g    0.490028  
       4B1g    0.490028     9B3u    0.536774    10Ag     0.570351  
      10B3u    0.623215  

    Final Occupation by Irrep:
             Ag   B1g   B2g   B3g    Au   B1u   B2u   B3u 
    DOCC [     4,    0,    0,    0,    0,    0,    0,    4 ]

  Energy converged.

  @RHF Final Energy:   -58.26786035115678

   => Energetics <=

    Nuclear Repulsion Energy =              8.1532488434607391
    One-Electron Energy =                 -92.7688835688935711
    Two-Electron Energy =                  26.3477743742760424
    DFT Exchange-Correlation Energy =       0.0000000000000000
    Empirical Dispersion Energy =           0.0000000000000000
    PCM Polarization Energy =               0.0000000000000000
    EFP Energy =                            0.0000000000000000
    Total Energy =                        -58.2678603511567843


  Saving occupied orbitals to File 180.

*** tstop() called on chemistry.org at Mon Jan  8 19:36:18 2018
Module time:
	user time   =       0.23 seconds =       0.00 minutes
	system time =       0.02 seconds =       0.00 minutes
	total time  =          1 seconds =       0.02 minutes
Total time:
	user time   =       0.23 seconds =       0.00 minutes
	system time =       0.02 seconds =       0.00 minutes
	total time  =          1 seconds =       0.02 minutes


Properties will be evaluated at   0.000000,   0.000000,   0.000000 Bohr

Properties computed using the SCF density matrix

  Nuclear Dipole Moment: (a.u.)
     X:     0.0000      Y:     0.0000      Z:     0.0000

  Electronic Dipole Moment: (a.u.)
     X:     0.0000      Y:     0.0000      Z:     0.0000

  Dipole Moment: (a.u.)
     X:     0.0000      Y:     0.0000      Z:     0.0000     Total:     0.0000

  Dipole Moment: (Debye)
     X:     0.0000      Y:     0.0000      Z:     0.0000     Total:     0.0000

 MINTS: Wrapper to libmints.
   by Justin Turney

   Calculation information:
      Number of atoms:                   4
      Number of AO shells:              20
      Number of SO shells:              10
      Number of primitives:             56
      Number of atomic orbitals:        36
      Number of basis functions:        36

      Number of irreps:                  8
      Integral cutoff                 0.00e+00
      Number of functions per irrep: [  10    4    4    0    0    4    4   10 ]

 OEINTS: Overlap, kinetic, potential, dipole, and quadrupole integrals
         stored in file 35.

      Computing two-electron integrals...done
      Computed 34119 non-zero two-electron integrals.
        Stored in file 33.


*** tstart() called on chemistry.org
*** at Mon Jan  8 19:36:18 2018


	Wfn Parameters:
	--------------------
	Wavefunction         = CCSD_T
	Number of irreps     = 8
	Number of MOs        = 36
	Number of active MOs = 32
	AO-Basis             = NONE
	Semicanonical        = false
	Reference            = RHF
	Print Level          = 1

	IRREP	# MOs	# FZDC	# DOCC	# SOCC	# VIRT	# FZVR
	-----	-----	------	------	------	------	------
	 Ag	   10	    2	    2	    0	    6	    0
	 B1g	   4	    0	    0	    0	    4	    0
	 B2g	   4	    0	    0	    0	    4	    0
	 B3g	   0	    0	    0	    0	    0	    0
	 Au	   0	    0	    0	    0	    0	    0
	 B1u	   4	    0	    0	    0	    4	    0
	 B2u	   4	    0	    0	    0	    4	    0
	 B3u	   10	    2	    2	    0	    6	    0
	Transforming integrals...
	IWL integrals will be deleted.
	(OO|OO)...
	Presorting SO-basis two-electron integrals.
	Sorting File: SO Ints (nn|nn) nbuckets = 1
	Transforming the one-electron integrals and constructing Fock matrices
	Starting first half-transformation.
	Sorting half-transformed integrals.
	First half integral transformation complete.
	Starting second half-transformation.
	Two-electron integral transformation complete.
	(OO|OV)...
	Starting second half-transformation.
	Two-electron integral transformation complete.
	(OO|VV)...
	Starting second half-transformation.
	Two-electron integral transformation complete.
	(OV|OO)...
	Starting first half-transformation.
	Sorting half-transformed integrals.
	First half integral transformation complete.
	Starting second half-transformation.
	Two-electron integral transformation complete.
	(OV|OV)...
	Starting second half-transformation.
	Two-electron integral transformation complete.
	(OV|VV)...
	Starting second half-transformation.
	Two-electron integral transformation complete.
	(VV|OO)...
	Starting first half-transformation.
	Sorting half-transformed integrals.
	First half integral transformation complete.
	Starting second half-transformation.
	Two-electron integral transformation complete.
	(VV|OV)...
	Starting second half-transformation.
	Two-electron integral transformation complete.
	(VV|VV)...
	Starting second half-transformation.
	Two-electron integral transformation complete.
	Frozen core energy     =    -60.55375417787995

	Size of irrep 0 of <ab|cd> integrals:      0.018 (MW) /      0.148 (MB)
	Size of irrep 1 of <ab|cd> integrals:      0.009 (MW) /      0.074 (MB)
	Size of irrep 2 of <ab|cd> integrals:      0.009 (MW) /      0.074 (MB)
	Size of irrep 3 of <ab|cd> integrals:      0.004 (MW) /      0.033 (MB)
	Size of irrep 4 of <ab|cd> integrals:      0.004 (MW) /      0.033 (MB)
	Size of irrep 5 of <ab|cd> integrals:      0.009 (MW) /      0.074 (MB)
	Size of irrep 6 of <ab|cd> integrals:      0.009 (MW) /      0.074 (MB)
	Size of irrep 7 of <ab|cd> integrals:      0.018 (MW) /      0.148 (MB)
	Total:                                     0.082 (MW) /      0.656 (MB)

	Size of irrep 0 of <ia|bc> integrals:      0.003 (MW) /      0.026 (MB)
	Size of irrep 1 of <ia|bc> integrals:      0.002 (MW) /      0.012 (MB)
	Size of irrep 2 of <ia|bc> integrals:      0.002 (MW) /      0.012 (MB)
	Size of irrep 3 of <ia|bc> integrals:      0.000 (MW) /      0.000 (MB)
	Size of irrep 4 of <ia|bc> integrals:      0.000 (MW) /      0.000 (MB)
	Size of irrep 5 of <ia|bc> integrals:      0.002 (MW) /      0.012 (MB)
	Size of irrep 6 of <ia|bc> integrals:      0.002 (MW) /      0.012 (MB)
	Size of irrep 7 of <ia|bc> integrals:      0.003 (MW) /      0.026 (MB)
	Total:                                     0.013 (MW) /      0.101 (MB)

	Size of irrep 0 of tijab amplitudes:       0.001 (MW) /      0.009 (MB)
	Size of irrep 1 of tijab amplitudes:       0.000 (MW) /      0.000 (MB)
	Size of irrep 2 of tijab amplitudes:       0.000 (MW) /      0.000 (MB)
	Size of irrep 3 of tijab amplitudes:       0.000 (MW) /      0.000 (MB)
	Size of irrep 4 of tijab amplitudes:       0.000 (MW) /      0.000 (MB)
	Size of irrep 5 of tijab amplitudes:       0.000 (MW) /      0.000 (MB)
	Size of irrep 6 of tijab amplitudes:       0.000 (MW) /      0.000 (MB)
	Size of irrep 7 of tijab amplitudes:       0.001 (MW) /      0.009 (MB)
	Total:                                     0.002 (MW) /      0.017 (MB)

	Nuclear Rep. energy          =      8.15324884346074
	SCF energy                   =    -58.26786035115678
	One-electron energy          =     -9.32351060016933
	Two-electron energy          =      3.45615558343150
	Reference energy             =    -58.26786035115705

*** tstop() called on chemistry.org at Mon Jan  8 19:36:18 2018
Module time:
	user time   =       0.02 seconds =       0.00 minutes
	system time =       0.01 seconds =       0.00 minutes
	total time  =          0 seconds =       0.00 minutes
Total time:
	user time   =       0.34 seconds =       0.01 minutes
	system time =       0.03 seconds =       0.00 minutes
	total time  =          1 seconds =       0.02 minutes

*** tstart() called on chemistry.org
*** at Mon Jan  8 19:36:18 2018

            **************************
            *                        *
            *        CCENERGY        *
            *                        *
            **************************

    Nuclear Rep. energy (wfn)     =    8.153248843460739
    SCF energy          (wfn)     =  -58.267860351156777
    Reference energy    (file100) =  -58.267860351157047

    Input parameters:
    -----------------
    Wave function   =     CCSD_T
    Reference wfn   =     RHF
    Brueckner       =     No
    Memory (Mbytes) =     24000.0
    Maxiter         =     50
    R_Convergence   =     1.0e-07
    E_Convergence   =     1.0e-10
    Restart         =     Yes
    DIIS            =     Yes
    AO Basis        =     NONE
    ABCD            =     NEW
    Cache Level     =     2
    Cache Type      =     LOW
    Print Level     =     1
    Num. of threads =     1
    # Amps to Print =     10
    Print MP2 Amps? =     No
    Analyze T2 Amps =     No
    Print Pair Ener =     No
    Local CC        =     No
    SCS-MP2         =     False
    SCSN-MP2        =     False
    SCS-CCSD        =     False

MP2 correlation energy -0.0944317940520347
                Solving CC Amplitude Equations
                ------------------------------
  Iter             Energy              RMS        T1Diag      D1Diag    New D1Diag    D2Diag
  ----     ---------------------    ---------   ----------  ----------  ----------   --------
     0        -0.094431794052033    0.000e+00    0.000000    0.000000    0.000000    0.166645
     1        -0.139440628499887    1.670e-01    0.004482    0.006670    0.006670    0.250599
     2        -0.183821522209879    8.746e-02    0.011926    0.018042    0.018042    0.338299
     3        -0.182839186021974    7.388e-03    0.012985    0.019941    0.019941    0.337790
     4        -0.183726762338931    2.221e-03    0.013234    0.020397    0.020397    0.339588
     5        -0.183932930702136    4.315e-04    0.013310    0.020557    0.020557    0.339990
     6        -0.183796537232664    2.959e-04    0.013287    0.020523    0.020523    0.339718
     7        -0.183780155939578    3.452e-05    0.013285    0.020521    0.020521    0.339687
     8        -0.183786963175525    2.348e-05    0.013286    0.020524    0.020524    0.339701
     9        -0.183789392617199    7.327e-06    0.013286    0.020524    0.020524    0.339707
    10        -0.183789347532202    3.556e-06    0.013286    0.020524    0.020524    0.339707
    11        -0.183789271700298    2.111e-06    0.013286    0.020523    0.020523    0.339707
    12        -0.183789280971902    7.057e-07    0.013286    0.020523    0.020523    0.339707
    13        -0.183789293072805    3.589e-07    0.013286    0.020523    0.020523    0.339707
    14        -0.183789295302770    1.403e-07    0.013286    0.020523    0.020523    0.339707
    15        -0.183789295274981    6.064e-08    0.013286    0.020523    0.020523    0.339707
    16        -0.183789294567286    3.009e-08    0.013286    0.020523    0.020523    0.339707

    Iterations converged.


    Largest TIA Amplitudes:
              0   2         0.0170474764
              2  24         0.0151380178
              1   3         0.0124892415
              1   1         0.0107869100
              3  26        -0.0106921259
              2  22         0.0092012199
              3  22        -0.0090033086
              3  25        -0.0085147374
              1   0         0.0077105060
              2  23         0.0076526928

    Largest TIjAb Amplitudes:
      0   0   0   0        -0.0599916339
      0   3   0  23         0.0563194334
      3   0  23   0         0.0563194334
      3   3   7   7        -0.0559109064
      3   3  11  11        -0.0559109064
      2   2  22  22        -0.0551169889
      1   1  15  15        -0.0546278658
      1   1  19  19        -0.0546278658
      1   1  22  22        -0.0541290886
      0   3  14  11        -0.0540287100

    SCF energy       (wfn)                    =  -58.267860351156777
    Reference energy (file100)                =  -58.267860351157047

    Opposite-spin MP2 correlation energy      =   -0.093544796423605
    Same-spin MP2 correlation energy          =   -0.000886997628429
    MP2 correlation energy                    =   -0.094431794052035
      * MP2 total energy                      =  -58.362292145209082

    Opposite-spin CCSD correlation energy     =   -0.182841045068970
    Same-spin CCSD correlation energy         =   -0.000948250211978
    CCSD correlation energy                   =   -0.183789294567286
      * CCSD total energy                     =  -58.451649645724331


*** tstop() called on chemistry.org at Mon Jan  8 19:36:19 2018
Module time:
	user time   =       0.08 seconds =       0.00 minutes
	system time =       0.11 seconds =       0.00 minutes
	total time  =          1 seconds =       0.02 minutes
Total time:
	user time   =       0.42 seconds =       0.01 minutes
	system time =       0.14 seconds =       0.00 minutes
	total time  =          2 seconds =       0.03 minutes

*** tstart() called on chemistry.org
*** at Mon Jan  8 19:36:19 2018

            **************************
            *                        *
            *        CCTRIPLES       *
            *                        *
            **************************


    Wave function   =    CCSD_T
    Reference wfn   =      RHF

    Nuclear Rep. energy (wfn)                =    8.153248843460739
    SCF energy          (wfn)                =  -58.267860351156777
    Reference energy    (file100)            =  -58.267860351157047
    CCSD energy         (file100)            =   -0.183789294567286
    Total CCSD energy   (file100)            =  -58.451649645724331

    Number of ijk index combinations:               20
    Memory available in words        :      3000000000
    ~Words needed per explicit thread:             864
    Number of threads for explicit ijk threading:    1

    (T) energy                                =   -0.000193299962028
      * CCSD(T) total energy                  =  -58.451842945686359


*** tstop() called on chemistry.org at Mon Jan  8 19:36:19 2018
Module time:
	user time   =       0.02 seconds =       0.00 minutes
	system time =       0.01 seconds =       0.00 minutes
	total time  =          0 seconds =       0.00 minutes
Total time:
	user time   =       0.44 seconds =       0.01 minutes
	system time =       0.15 seconds =       0.00 minutes
	total time  =          2 seconds =       0.03 minutes

*** Psi4 exiting successfully. Buy a developer a beer!
