    -----------------------------------------------------------------------
          Psi4: An Open-Source Ab Initio Electronic Structure Package
                              Psi4 1.0.0 Driver

                          Git: Rev {master} 6a9a71b dirty

    J. M. Turney, A. C. Simmonett, R. M. Parrish, E. G. Hohenstein,
    F. A. Evangelista, J. T. Fermann, B. J. Mintz, L. A. Burns, J. J. Wilke,
    M. L. Abrams, N. J. Russ, M. L. Leininger, C. L. Janssen, E. T. Seidl,
    W. D. Allen, H. F. Schaefer, R. A. King, E. F. Valeev, C. D. Sherrill,
    and T. D. Crawford, WIREs Comput. Mol. Sci. 2, 556-565 (2012)
    (doi: 10.1002/wcms.93)

                         Additional Contributions by
    A. E. DePrince, U. Bozkaya, A. Yu. Sokolov, D. G. A. Smith, R. Di Remigio,
    R. M. Richard, J. F. Gonthier, H. R. McAlexander, M. Saitow, and
    B. P. Pritchard
    -----------------------------------------------------------------------


    Psi4 started on: Mon Jan  8 19:36:24 2018

    Process ID:  29673
    PSI4DATADIR: /home/yhliu/psi4conda/share/psi4
    Memory level set to 256.000 MB

  ==> Input File <==

--------------------------------------------------------------------------
memory 24 Gb
molecule beN {
0 1
Be   0.0    0.0 0.0
Be   4.5    0.0 0.0
Be   9.0    0.0 0.0
Be  13.5    0.0 0.0
Be  18.0    0.0 0.0
Be  22.5    0.0 0.0
Be  27.0    0.0 0.0
Be  31.5    0.0 0.0
units angstrom    
}

set basis 6-31g
set freeze_core true
set PRINT_BASIS True
set PUREAM False
set E_CONVERGENCE 1e-10
energy('ccsd(t)')
--------------------------------------------------------------------------
/home/yhliu/psi4conda/lib/python2.7/site-packages/v2rdm_casscf/v2rdm_casscf.so loaded.

  Memory set to  24.000 GiB by Python script.

*** tstart() called on chemistry.org
*** at Mon Jan  8 19:36:24 2018


         ---------------------------------------------------------
                                   SCF
            by Justin Turney, Rob Parrish, and Andy Simmonett
                              RHF Reference
                        1 Threads,  24000 MiB Core
         ---------------------------------------------------------

  ==> Geometry <==

    Molecular point group: d2h
    Full point group: D_inf_h

    Geometry (in Angstrom), charge = 0, multiplicity = 1:

       Center              X                  Y                   Z               Mass       
    ------------   -----------------  -----------------  -----------------  -----------------
          BE        -15.750000000000    -0.000000000000     0.000000000000     9.012182201000
          BE        -11.250000000000    -0.000000000000     0.000000000000     9.012182201000
          BE         -6.750000000000    -0.000000000000     0.000000000000     9.012182201000
          BE         -2.250000000000    -0.000000000000     0.000000000000     9.012182201000
          BE          2.250000000000     0.000000000000     0.000000000000     9.012182201000
          BE          6.750000000000     0.000000000000     0.000000000000     9.012182201000
          BE         11.250000000000     0.000000000000     0.000000000000     9.012182201000
          BE         15.750000000000     0.000000000000     0.000000000000     9.012182201000

  Running in d2h symmetry.

  Rotational constants: A = ************  B =      0.00220  C =      0.00220 [cm^-1]
  Rotational constants: A = ************  B =     65.93453  C =     65.93453 [MHz]
  Nuclear repulsion =   25.857446332118354

  Charge       = 0
  Multiplicity = 1
  Electrons    = 32
  Nalpha       = 16
  Nbeta        = 16

  ==> Algorithm <==

  SCF Algorithm Type is PK.
  DIIS enabled.
  MOM disabled.
  Fractional occupation disabled.
  Guess Type is SAD.
  Energy threshold   = 1.00e-10
  Density threshold  = 1.00e-08
  Integral threshold = 0.00e+00

  ==> Primary Basis <==

  Basis Set: 6-31G
    Number of shells: 40
    Number of basis function: 72
    Number of Cartesian functions: 72
    Spherical Harmonics?: false
    Max angular momentum: 1

  -AO BASIS SET INFORMATION:
    Name                   = 6-31G
    Total number of shells = 40
    Number of primitives   = 112
    Number of AO           = 72
    Number of SO           = 72
    Maximum AM             = 1
    Spherical Harmonics    = FALSE

  -Contraction Scheme:
    Atom   Type   All Primitives // Shells:
   ------ ------ --------------------------
       1    BE     10s 4p // 3s 2p 
       2    BE     10s 4p // 3s 2p 
       3    BE     10s 4p // 3s 2p 
       4    BE     10s 4p // 3s 2p 
       5    BE     10s 4p // 3s 2p 
       6    BE     10s 4p // 3s 2p 
       7    BE     10s 4p // 3s 2p 
       8    BE     10s 4p // 3s 2p 

  ==> AO Basis Functions <==

    [ 6-31G ]
    cartesian
    ****
   BE   1
    S   6 1.00
                      1264.58570000           0.00194480
                       189.93681000           0.01483510
                        43.15908900           0.07209060
                        12.09866300           0.23715420
                         3.80632320           0.46919870
                         1.27289030           0.35652020
    S   3 1.00
                         3.19646310          -0.11264870
                         0.74781330          -0.22950640
                         0.21996630           1.18691670
    P   3 1.00
                         3.19646310           0.05598020
                         0.74781330           0.26155060
                         0.21996630           0.79397230
    S   1 1.00
                         0.08230990           1.00000000
    P   1 1.00
                         0.08230990           1.00000000
    ****
   BE   2
    S   6 1.00
                      1264.58570000           0.00194480
                       189.93681000           0.01483510
                        43.15908900           0.07209060
                        12.09866300           0.23715420
                         3.80632320           0.46919870
                         1.27289030           0.35652020
    S   3 1.00
                         3.19646310          -0.11264870
                         0.74781330          -0.22950640
                         0.21996630           1.18691670
    P   3 1.00
                         3.19646310           0.05598020
                         0.74781330           0.26155060
                         0.21996630           0.79397230
    S   1 1.00
                         0.08230990           1.00000000
    P   1 1.00
                         0.08230990           1.00000000
    ****
   BE   3
    S   6 1.00
                      1264.58570000           0.00194480
                       189.93681000           0.01483510
                        43.15908900           0.07209060
                        12.09866300           0.23715420
                         3.80632320           0.46919870
                         1.27289030           0.35652020
    S   3 1.00
                         3.19646310          -0.11264870
                         0.74781330          -0.22950640
                         0.21996630           1.18691670
    P   3 1.00
                         3.19646310           0.05598020
                         0.74781330           0.26155060
                         0.21996630           0.79397230
    S   1 1.00
                         0.08230990           1.00000000
    P   1 1.00
                         0.08230990           1.00000000
    ****
   BE   4
    S   6 1.00
                      1264.58570000           0.00194480
                       189.93681000           0.01483510
                        43.15908900           0.07209060
                        12.09866300           0.23715420
                         3.80632320           0.46919870
                         1.27289030           0.35652020
    S   3 1.00
                         3.19646310          -0.11264870
                         0.74781330          -0.22950640
                         0.21996630           1.18691670
    P   3 1.00
                         3.19646310           0.05598020
                         0.74781330           0.26155060
                         0.21996630           0.79397230
    S   1 1.00
                         0.08230990           1.00000000
    P   1 1.00
                         0.08230990           1.00000000
    ****

  ==> Pre-Iterations <==

   -------------------------------------------------------
    Irrep   Nso     Nmo     Nalpha   Nbeta   Ndocc  Nsocc
   -------------------------------------------------------
     Ag        20      20       0       0       0       0
     B1g        8       8       0       0       0       0
     B2g        8       8       0       0       0       0
     B3g        0       0       0       0       0       0
     Au         0       0       0       0       0       0
     B1u        8       8       0       0       0       0
     B2u        8       8       0       0       0       0
     B3u       20      20       0       0       0       0
   -------------------------------------------------------
    Total      72      72      16      16      16       0
   -------------------------------------------------------

  ==> Integral Setup <==

  Using in-core PK algorithm.
   Calculation information:
      Number of atoms:                   8
      Number of AO shells:              40
      Number of primitives:            112
      Number of atomic orbitals:        72
      Number of basis functions:        72

      Integral cutoff                 1.00e-12
      Number of threads:                 1

  Performing in-core PK
  Using 6909012 doubles for integral storage.
  We computed 68121 shell quartets total.
  Whereas there are 336610 unique shell quartets.
  ==> DiskJK: Disk-Based J/K Matrices <==

    J tasked:                  Yes
    K tasked:                  Yes
    wK tasked:                  No
    Memory (MB):             17166
    Schwarz Cutoff:          1E-12

    OpenMP threads:              1
  Minimum eigenvalue in the overlap matrix is 1.0051696826E-01.
  Using Symmetric Orthogonalization.
  SCF Guess: Superposition of Atomic Densities via on-the-fly atomic UHF.

  ==> Iterations <==

                        Total Energy        Delta E     RMS |[F,P]|

   @RHF iter   0:  -116.54044085223886   -1.16540e+02   1.36176e-03 
   @RHF iter   1:  -116.53562971771878    4.81113e-03   3.01650e-04 
   @RHF iter   2:  -116.53593126023263   -3.01543e-04   9.92337e-05 DIIS
   @RHF iter   3:  -116.53597040167084   -3.91414e-05   5.18072e-06 DIIS
   @RHF iter   4:  -116.53597047755785   -7.58870e-08   3.41032e-07 DIIS
   @RHF iter   5:  -116.53597047778122   -2.23366e-10   4.88417e-08 DIIS
   @RHF iter   6:  -116.53597047778599   -4.77485e-12   3.39612e-09 DIIS

  ==> Post-Iterations <==

    Orbital Energies (a.u.)
    -----------------------

    Doubly Occupied:                                                      

       1B3u   -4.708052     1Ag    -4.708052     2B3u   -4.707940  
       2Ag    -4.707940     3B3u   -4.707907     3Ag    -4.707905  
       4B3u   -4.707379     4Ag    -4.707379     5Ag    -0.316792  
       5B3u   -0.314319     6Ag    -0.310290     6B3u   -0.305048  
       7Ag    -0.299096     7B3u   -0.293097     8Ag    -0.287844  
       8B3u   -0.284157  

    Virtual:                                                              

       9Ag     0.040099     9B3u    0.048369    10Ag     0.061622  
       1B2u    0.068811     1B1u    0.068811     1B2g    0.071159  
       1B1g    0.071159     2B2u    0.074921     2B1u    0.074921  
      10B3u    0.078977     2B2g    0.079690     2B1g    0.079690  
       3B2u    0.084928     3B1u    0.084928     3B2g    0.090000  
       3B1g    0.090000     4B2u    0.094255     4B1u    0.094255  
       4B2g    0.097137     4B1g    0.097137    11Ag     0.099308  
      11B3u    0.120935    12Ag     0.141076    12B3u    0.155799  
      13Ag     0.397361    13B3u    0.402332    14Ag     0.410137  
      14B3u    0.419988    15Ag     0.431064    15B3u    0.442576  
       5B2u    0.443550     5B1u    0.443550     5B2g    0.446824  
       5B1g    0.446824     6B2u    0.452356     6B1u    0.452356  
      16Ag     0.453575     6B2g    0.459974     6B1g    0.459974  
      16B3u    0.462872    17Ag     0.464957     7B2u    0.469230  
       7B1u    0.469230     7B2g    0.479213     7B1g    0.479213  
       8B2u    0.488460     8B1u    0.488460     8B2g    0.495160  
       8B1g    0.495160    17B3u    0.527032    18Ag     0.537322  
      18B3u    0.551900    19Ag     0.570600    19B3u    0.594331  
      20Ag     0.622674    20B3u    0.649407  

    Final Occupation by Irrep:
             Ag   B1g   B2g   B3g    Au   B1u   B2u   B3u 
    DOCC [     8,    0,    0,    0,    0,    0,    0,    8 ]

  Energy converged.

  @RHF Final Energy:  -116.53597047778599

   => Energetics <=

    Nuclear Repulsion Energy =             25.8574463321183536
    One-Electron Energy =                -204.6404403757480281
    Two-Electron Energy =                  62.2470235658436621
    DFT Exchange-Correlation Energy =       0.0000000000000000
    Empirical Dispersion Energy =           0.0000000000000000
    PCM Polarization Energy =               0.0000000000000000
    EFP Energy =                            0.0000000000000000
    Total Energy =                       -116.5359704777860230


  Saving occupied orbitals to File 180.

*** tstop() called on chemistry.org at Mon Jan  8 19:36:24 2018
Module time:
	user time   =       0.47 seconds =       0.01 minutes
	system time =       0.02 seconds =       0.00 minutes
	total time  =          0 seconds =       0.00 minutes
Total time:
	user time   =       0.47 seconds =       0.01 minutes
	system time =       0.02 seconds =       0.00 minutes
	total time  =          0 seconds =       0.00 minutes


Properties will be evaluated at   0.000000,   0.000000,   0.000000 Bohr

Properties computed using the SCF density matrix

  Nuclear Dipole Moment: (a.u.)
     X:    -0.0000      Y:    -0.0000      Z:     0.0000

  Electronic Dipole Moment: (a.u.)
     X:     0.0000      Y:     0.0000      Z:     0.0000

  Dipole Moment: (a.u.)
     X:    -0.0000      Y:    -0.0000      Z:     0.0000     Total:     0.0000

  Dipole Moment: (Debye)
     X:    -0.0000      Y:    -0.0000      Z:     0.0000     Total:     0.0000

 MINTS: Wrapper to libmints.
   by Justin Turney

   Calculation information:
      Number of atoms:                   8
      Number of AO shells:              40
      Number of SO shells:              20
      Number of primitives:            112
      Number of atomic orbitals:        72
      Number of basis functions:        72

      Number of irreps:                  8
      Integral cutoff                 0.00e+00
      Number of functions per irrep: [  20    8    8    0    0    8    8   20 ]

 OEINTS: Overlap, kinetic, potential, dipole, and quadrupole integrals
         stored in file 35.

      Computing two-electron integrals...done
      Computed 520932 non-zero two-electron integrals.
        Stored in file 33.


*** tstart() called on chemistry.org
*** at Mon Jan  8 19:36:25 2018


	Wfn Parameters:
	--------------------
	Wavefunction         = CCSD_T
	Number of irreps     = 8
	Number of MOs        = 72
	Number of active MOs = 64
	AO-Basis             = NONE
	Semicanonical        = false
	Reference            = RHF
	Print Level          = 1

	IRREP	# MOs	# FZDC	# DOCC	# SOCC	# VIRT	# FZVR
	-----	-----	------	------	------	------	------
	 Ag	   20	    4	    4	    0	    12	    0
	 B1g	   8	    0	    0	    0	    8	    0
	 B2g	   8	    0	    0	    0	    8	    0
	 B3g	   0	    0	    0	    0	    0	    0
	 Au	   0	    0	    0	    0	    0	    0
	 B1u	   8	    0	    0	    0	    8	    0
	 B2u	   8	    0	    0	    0	    8	    0
	 B3u	   20	    4	    4	    0	    12	    0
	Transforming integrals...
	IWL integrals will be deleted.
	(OO|OO)...
	Presorting SO-basis two-electron integrals.
	Sorting File: SO Ints (nn|nn) nbuckets = 1
	Transforming the one-electron integrals and constructing Fock matrices
	Starting first half-transformation.
	Sorting half-transformed integrals.
	First half integral transformation complete.
	Starting second half-transformation.
	Two-electron integral transformation complete.
	(OO|OV)...
	Starting second half-transformation.
	Two-electron integral transformation complete.
	(OO|VV)...
	Starting second half-transformation.
	Two-electron integral transformation complete.
	(OV|OO)...
	Starting first half-transformation.
	Sorting half-transformed integrals.
	First half integral transformation complete.
	Starting second half-transformation.
	Two-electron integral transformation complete.
	(OV|OV)...
	Starting second half-transformation.
	Two-electron integral transformation complete.
	(OV|VV)...
	Starting second half-transformation.
	Two-electron integral transformation complete.
	(VV|OO)...
	Starting first half-transformation.
	Sorting half-transformed integrals.
	First half integral transformation complete.
	Starting second half-transformation.
	Two-electron integral transformation complete.
	(VV|OV)...
	Starting second half-transformation.
	Two-electron integral transformation complete.
	(VV|VV)...
	Starting second half-transformation.
	Two-electron integral transformation complete.
	Frozen core energy     =   -128.27071888888440

	Size of irrep 0 of <ab|cd> integrals:      0.296 (MW) /      2.367 (MB)
	Size of irrep 1 of <ab|cd> integrals:      0.147 (MW) /      1.180 (MB)
	Size of irrep 2 of <ab|cd> integrals:      0.147 (MW) /      1.180 (MB)
	Size of irrep 3 of <ab|cd> integrals:      0.066 (MW) /      0.524 (MB)
	Size of irrep 4 of <ab|cd> integrals:      0.066 (MW) /      0.524 (MB)
	Size of irrep 5 of <ab|cd> integrals:      0.147 (MW) /      1.180 (MB)
	Size of irrep 6 of <ab|cd> integrals:      0.147 (MW) /      1.180 (MB)
	Size of irrep 7 of <ab|cd> integrals:      0.296 (MW) /      2.367 (MB)
	Total:                                     1.313 (MW) /     10.502 (MB)

	Size of irrep 0 of <ia|bc> integrals:      0.052 (MW) /      0.418 (MB)
	Size of irrep 1 of <ia|bc> integrals:      0.025 (MW) /      0.197 (MB)
	Size of irrep 2 of <ia|bc> integrals:      0.025 (MW) /      0.197 (MB)
	Size of irrep 3 of <ia|bc> integrals:      0.000 (MW) /      0.000 (MB)
	Size of irrep 4 of <ia|bc> integrals:      0.000 (MW) /      0.000 (MB)
	Size of irrep 5 of <ia|bc> integrals:      0.025 (MW) /      0.197 (MB)
	Size of irrep 6 of <ia|bc> integrals:      0.025 (MW) /      0.197 (MB)
	Size of irrep 7 of <ia|bc> integrals:      0.052 (MW) /      0.418 (MB)
	Total:                                     0.203 (MW) /      1.622 (MB)

	Size of irrep 0 of tijab amplitudes:       0.017 (MW) /      0.139 (MB)
	Size of irrep 1 of tijab amplitudes:       0.000 (MW) /      0.000 (MB)
	Size of irrep 2 of tijab amplitudes:       0.000 (MW) /      0.000 (MB)
	Size of irrep 3 of tijab amplitudes:       0.000 (MW) /      0.000 (MB)
	Size of irrep 4 of tijab amplitudes:       0.000 (MW) /      0.000 (MB)
	Size of irrep 5 of tijab amplitudes:       0.000 (MW) /      0.000 (MB)
	Size of irrep 6 of tijab amplitudes:       0.000 (MW) /      0.000 (MB)
	Size of irrep 7 of tijab amplitudes:       0.017 (MW) /      0.139 (MB)
	Total:                                     0.035 (MW) /      0.279 (MB)

	Nuclear Rep. energy          =     25.85744633211835
	SCF energy                   =   -116.53597047778599
	One-electron energy          =    -23.42411152839493
	Two-electron energy          =      9.30141360737396
	Reference energy             =   -116.53597047778702

*** tstop() called on chemistry.org at Mon Jan  8 19:36:25 2018
Module time:
	user time   =       0.14 seconds =       0.00 minutes
	system time =       0.08 seconds =       0.00 minutes
	total time  =          0 seconds =       0.00 minutes
Total time:
	user time   =       1.37 seconds =       0.02 minutes
	system time =       0.12 seconds =       0.00 minutes
	total time  =          1 seconds =       0.02 minutes

*** tstart() called on chemistry.org
*** at Mon Jan  8 19:36:25 2018

            **************************
            *                        *
            *        CCENERGY        *
            *                        *
            **************************

    Nuclear Rep. energy (wfn)     =   25.857446332118354
    SCF energy          (wfn)     = -116.535970477785995
    Reference energy    (file100) = -116.535970477787018

    Input parameters:
    -----------------
    Wave function   =     CCSD_T
    Reference wfn   =     RHF
    Brueckner       =     No
    Memory (Mbytes) =     24000.0
    Maxiter         =     50
    R_Convergence   =     1.0e-07
    E_Convergence   =     1.0e-10
    Restart         =     Yes
    DIIS            =     Yes
    AO Basis        =     NONE
    ABCD            =     NEW
    Cache Level     =     2
    Cache Type      =     LOW
    Print Level     =     1
    Num. of threads =     1
    # Amps to Print =     10
    Print MP2 Amps? =     No
    Analyze T2 Amps =     No
    Print Pair Ener =     No
    Local CC        =     No
    SCS-MP2         =     False
    SCSN-MP2        =     False
    SCS-CCSD        =     False

MP2 correlation energy -0.1893714048896784
                Solving CC Amplitude Equations
                ------------------------------
  Iter             Energy              RMS        T1Diag      D1Diag    New D1Diag    D2Diag
  ----     ---------------------    ---------   ----------  ----------  ----------   --------
     0        -0.189371404889676    0.000e+00    0.000000    0.000000    0.000000    0.167639
     1        -0.279305224231703    2.358e-01    0.004461    0.006752    0.006752    0.251866
     2        -0.367460562868096    1.233e-01    0.011963    0.018644    0.018644    0.339392
     3        -0.365648229652901    1.089e-02    0.013139    0.020817    0.020817    0.339013
     4        -0.367448004750084    3.260e-03    0.013416    0.021360    0.021360    0.340847
     5        -0.367868509552520    6.613e-04    0.013503    0.021556    0.021556    0.341254
     6        -0.367593421092603    4.297e-04    0.013479    0.021520    0.021520    0.340978
     7        -0.367555668204605    5.378e-05    0.013477    0.021519    0.021519    0.340942
     8        -0.367569403055816    3.460e-05    0.013479    0.021522    0.021522    0.340957
     9        -0.367574756063072    1.108e-05    0.013479    0.021522    0.021522    0.340963
    10        -0.367574649273498    5.229e-06    0.013479    0.021522    0.021522    0.340963
    11        -0.367574482959107    3.111e-06    0.013479    0.021522    0.021522    0.340963
    12        -0.367574494941732    1.117e-06    0.013479    0.021522    0.021522    0.340963
    13        -0.367574522914367    5.756e-07    0.013479    0.021522    0.021522    0.340964
    14        -0.367574528755365    2.142e-07    0.013479    0.021522    0.021522    0.340964
    15        -0.367574529194976    9.307e-08    0.013479    0.021522    0.021522    0.340964
    16        -0.367574526392242    4.732e-08    0.013479    0.021522    0.021522    0.340964
    17        -0.367574525608190    1.644e-08    0.013479    0.021522    0.021522    0.340964
    18        -0.367574525121939    4.369e-09    0.013479    0.021522    0.021522    0.340964
    19        -0.367574524960944    2.065e-09    0.013479    0.021522    0.021522    0.340964
    20        -0.367574524968818    1.164e-09    0.013479    0.021522    0.021522    0.340964
    21        -0.367574524998574    6.494e-10    0.013479    0.021522    0.021522    0.340964

    Iterations converged.


    Largest TIA Amplitudes:
              0   4         0.0175540855
              4  48         0.0166202297
              1   5         0.0153643833
              5  49         0.0139710076
              7  52        -0.0124523640
              2   6         0.0124369938
              2   2         0.0111062066
              6  45        -0.0110492708
              6  50        -0.0106101939
              3   9        -0.0105974528

    Largest TIjAb Amplitudes:
      0   0   0   0        -0.0339482427
      4   4  44  44        -0.0330512655
      7   7  15  15        -0.0321790398
      7   7  23  23        -0.0321790398
      0   7   0  47         0.0319337421
      7   0  47   0         0.0319337421
      1   1   1   1        -0.0313315178
      3   3  31  31        -0.0311106101
      3   3  39  39        -0.0311106101
      3   4   3  44         0.0309521293

    SCF energy       (wfn)                    = -116.535970477785995
    Reference energy (file100)                = -116.535970477787018

    Opposite-spin MP2 correlation energy      =   -0.187277537900602
    Same-spin MP2 correlation energy          =   -0.002093866989074
    MP2 correlation energy                    =   -0.189371404889678
      * MP2 total energy                      = -116.725341882676702

    Opposite-spin CCSD correlation energy     =   -0.365333722784021
    Same-spin CCSD correlation energy         =   -0.002240803640153
    CCSD correlation energy                   =   -0.367574524998574
      * CCSD total energy                     = -116.903545002785592


*** tstop() called on chemistry.org at Mon Jan  8 19:36:26 2018
Module time:
	user time   =       0.34 seconds =       0.01 minutes
	system time =       0.27 seconds =       0.00 minutes
	total time  =          1 seconds =       0.02 minutes
Total time:
	user time   =       1.71 seconds =       0.03 minutes
	system time =       0.39 seconds =       0.01 minutes
	total time  =          2 seconds =       0.03 minutes

*** tstart() called on chemistry.org
*** at Mon Jan  8 19:36:26 2018

            **************************
            *                        *
            *        CCTRIPLES       *
            *                        *
            **************************


    Wave function   =    CCSD_T
    Reference wfn   =      RHF

    Nuclear Rep. energy (wfn)                =   25.857446332118354
    SCF energy          (wfn)                = -116.535970477785995
    Reference energy    (file100)            = -116.535970477787018
    CCSD energy         (file100)            =   -0.367574524998574
    Total CCSD energy   (file100)            = -116.903545002785592

    Number of ijk index combinations:              120
    Memory available in words        :      3000000000
    ~Words needed per explicit thread:            6912
    Number of threads for explicit ijk threading:    1

    (T) energy                                =   -0.000458584115428
      * CCSD(T) total energy                  = -116.904003586901027


*** tstop() called on chemistry.org at Mon Jan  8 19:36:27 2018
Module time:
	user time   =       0.19 seconds =       0.00 minutes
	system time =       0.03 seconds =       0.00 minutes
	total time  =          1 seconds =       0.02 minutes
Total time:
	user time   =       1.90 seconds =       0.03 minutes
	system time =       0.42 seconds =       0.01 minutes
	total time  =          3 seconds =       0.05 minutes

*** Psi4 exiting successfully. Buy a developer a beer!
