    -----------------------------------------------------------------------
          Psi4: An Open-Source Ab Initio Electronic Structure Package
                              Psi4 1.0.0 Driver

                          Git: Rev {master} 6a9a71b dirty

    J. M. Turney, A. C. Simmonett, R. M. Parrish, E. G. Hohenstein,
    F. A. Evangelista, J. T. Fermann, B. J. Mintz, L. A. Burns, J. J. Wilke,
    M. L. Abrams, N. J. Russ, M. L. Leininger, C. L. Janssen, E. T. Seidl,
    W. D. Allen, H. F. Schaefer, R. A. King, E. F. Valeev, C. D. Sherrill,
    and T. D. Crawford, WIREs Comput. Mol. Sci. 2, 556-565 (2012)
    (doi: 10.1002/wcms.93)

                         Additional Contributions by
    A. E. DePrince, U. Bozkaya, A. Yu. Sokolov, D. G. A. Smith, R. Di Remigio,
    R. M. Richard, J. F. Gonthier, H. R. McAlexander, M. Saitow, and
    B. P. Pritchard
    -----------------------------------------------------------------------


    Psi4 started on: Mon Jan  8 19:38:39 2018

    Process ID:  29898
    PSI4DATADIR: /home/yhliu/psi4conda/share/psi4
    Memory level set to 256.000 MB

  ==> Input File <==

--------------------------------------------------------------------------
memory 24 Gb
molecule beN {
0 1
Be   0.0    0.0 0.0
Be   4.5    0.0 0.0
Be   9.0    0.0 0.0
Be  13.5    0.0 0.0
Be  18.0    0.0 0.0
Be  22.5    0.0 0.0
Be  27.0    0.0 0.0
Be  31.5    0.0 0.0
Be  36.0    0.0 0.0
Be  40.5    0.0 0.0
Be  45.0    0.0 0.0
Be  49.5    0.0 0.0
Be  54.0    0.0 0.0
Be  58.5    0.0 0.0
Be  63.0    0.0 0.0
Be  67.5    0.0 0.0
Be  72.0    0.0 0.0
units angstrom    
}

set basis 6-31g
set freeze_core true
set PRINT_BASIS True
set PUREAM False
set E_CONVERGENCE 1e-10
energy('ccsd(t)')
--------------------------------------------------------------------------
/home/yhliu/psi4conda/lib/python2.7/site-packages/v2rdm_casscf/v2rdm_casscf.so loaded.

  Memory set to  24.000 GiB by Python script.

*** tstart() called on chemistry.org
*** at Mon Jan  8 19:38:40 2018


         ---------------------------------------------------------
                                   SCF
            by Justin Turney, Rob Parrish, and Andy Simmonett
                              RHF Reference
                        1 Threads,  24000 MiB Core
         ---------------------------------------------------------

  ==> Geometry <==

    Molecular point group: d2h
    Full point group: D_inf_h

    Geometry (in Angstrom), charge = 0, multiplicity = 1:

       Center              X                  Y                   Z               Mass       
    ------------   -----------------  -----------------  -----------------  -----------------
          BE        -36.000000000000    -0.000000000000     0.000000000000     9.012182201000
          BE        -31.500000000000    -0.000000000000     0.000000000000     9.012182201000
          BE        -27.000000000000    -0.000000000000     0.000000000000     9.012182201000
          BE        -22.500000000000    -0.000000000000     0.000000000000     9.012182201000
          BE        -18.000000000000    -0.000000000000     0.000000000000     9.012182201000
          BE        -13.500000000000    -0.000000000000     0.000000000000     9.012182201000
          BE         -9.000000000000    -0.000000000000     0.000000000000     9.012182201000
          BE         -4.500000000000    -0.000000000000     0.000000000000     9.012182201000
          BE          0.000000000000     0.000000000000     0.000000000000     9.012182201000
          BE          4.500000000000     0.000000000000     0.000000000000     9.012182201000
          BE          9.000000000000     0.000000000000     0.000000000000     9.012182201000
          BE         13.500000000000     0.000000000000     0.000000000000     9.012182201000
          BE         18.000000000000     0.000000000000     0.000000000000     9.012182201000
          BE         22.500000000000     0.000000000000     0.000000000000     9.012182201000
          BE         27.000000000000     0.000000000000     0.000000000000     9.012182201000
          BE         31.500000000000     0.000000000000     0.000000000000     9.012182201000
          BE         36.000000000000     0.000000000000     0.000000000000     9.012182201000

  Running in d2h symmetry.

  Rotational constants: A = ************  B =      0.00023  C =      0.00023 [cm^-1]
  Rotational constants: A = ************  B =      6.78738  C =      6.78738 [MHz]
  Nuclear repulsion =   78.031093690223585

  Charge       = 0
  Multiplicity = 1
  Electrons    = 68
  Nalpha       = 34
  Nbeta        = 34

  ==> Algorithm <==

  SCF Algorithm Type is PK.
  DIIS enabled.
  MOM disabled.
  Fractional occupation disabled.
  Guess Type is SAD.
  Energy threshold   = 1.00e-10
  Density threshold  = 1.00e-08
  Integral threshold = 0.00e+00

  ==> Primary Basis <==

  Basis Set: 6-31G
    Number of shells: 85
    Number of basis function: 153
    Number of Cartesian functions: 153
    Spherical Harmonics?: false
    Max angular momentum: 1

  -AO BASIS SET INFORMATION:
    Name                   = 6-31G
    Total number of shells = 85
    Number of primitives   = 238
    Number of AO           = 153
    Number of SO           = 153
    Maximum AM             = 1
    Spherical Harmonics    = FALSE

  -Contraction Scheme:
    Atom   Type   All Primitives // Shells:
   ------ ------ --------------------------
       1    BE     10s 4p // 3s 2p 
       2    BE     10s 4p // 3s 2p 
       3    BE     10s 4p // 3s 2p 
       4    BE     10s 4p // 3s 2p 
       5    BE     10s 4p // 3s 2p 
       6    BE     10s 4p // 3s 2p 
       7    BE     10s 4p // 3s 2p 
       8    BE     10s 4p // 3s 2p 
       9    BE     10s 4p // 3s 2p 
      10    BE     10s 4p // 3s 2p 
      11    BE     10s 4p // 3s 2p 
      12    BE     10s 4p // 3s 2p 
      13    BE     10s 4p // 3s 2p 
      14    BE     10s 4p // 3s 2p 
      15    BE     10s 4p // 3s 2p 
      16    BE     10s 4p // 3s 2p 
      17    BE     10s 4p // 3s 2p 

  ==> AO Basis Functions <==

    [ 6-31G ]
    cartesian
    ****
   BE   1
    S   6 1.00
                      1264.58570000           0.00194480
                       189.93681000           0.01483510
                        43.15908900           0.07209060
                        12.09866300           0.23715420
                         3.80632320           0.46919870
                         1.27289030           0.35652020
    S   3 1.00
                         3.19646310          -0.11264870
                         0.74781330          -0.22950640
                         0.21996630           1.18691670
    P   3 1.00
                         3.19646310           0.05598020
                         0.74781330           0.26155060
                         0.21996630           0.79397230
    S   1 1.00
                         0.08230990           1.00000000
    P   1 1.00
                         0.08230990           1.00000000
    ****
   BE   2
    S   6 1.00
                      1264.58570000           0.00194480
                       189.93681000           0.01483510
                        43.15908900           0.07209060
                        12.09866300           0.23715420
                         3.80632320           0.46919870
                         1.27289030           0.35652020
    S   3 1.00
                         3.19646310          -0.11264870
                         0.74781330          -0.22950640
                         0.21996630           1.18691670
    P   3 1.00
                         3.19646310           0.05598020
                         0.74781330           0.26155060
                         0.21996630           0.79397230
    S   1 1.00
                         0.08230990           1.00000000
    P   1 1.00
                         0.08230990           1.00000000
    ****
   BE   3
    S   6 1.00
                      1264.58570000           0.00194480
                       189.93681000           0.01483510
                        43.15908900           0.07209060
                        12.09866300           0.23715420
                         3.80632320           0.46919870
                         1.27289030           0.35652020
    S   3 1.00
                         3.19646310          -0.11264870
                         0.74781330          -0.22950640
                         0.21996630           1.18691670
    P   3 1.00
                         3.19646310           0.05598020
                         0.74781330           0.26155060
                         0.21996630           0.79397230
    S   1 1.00
                         0.08230990           1.00000000
    P   1 1.00
                         0.08230990           1.00000000
    ****
   BE   4
    S   6 1.00
                      1264.58570000           0.00194480
                       189.93681000           0.01483510
                        43.15908900           0.07209060
                        12.09866300           0.23715420
                         3.80632320           0.46919870
                         1.27289030           0.35652020
    S   3 1.00
                         3.19646310          -0.11264870
                         0.74781330          -0.22950640
                         0.21996630           1.18691670
    P   3 1.00
                         3.19646310           0.05598020
                         0.74781330           0.26155060
                         0.21996630           0.79397230
    S   1 1.00
                         0.08230990           1.00000000
    P   1 1.00
                         0.08230990           1.00000000
    ****
   BE   5
    S   6 1.00
                      1264.58570000           0.00194480
                       189.93681000           0.01483510
                        43.15908900           0.07209060
                        12.09866300           0.23715420
                         3.80632320           0.46919870
                         1.27289030           0.35652020
    S   3 1.00
                         3.19646310          -0.11264870
                         0.74781330          -0.22950640
                         0.21996630           1.18691670
    P   3 1.00
                         3.19646310           0.05598020
                         0.74781330           0.26155060
                         0.21996630           0.79397230
    S   1 1.00
                         0.08230990           1.00000000
    P   1 1.00
                         0.08230990           1.00000000
    ****
   BE   6
    S   6 1.00
                      1264.58570000           0.00194480
                       189.93681000           0.01483510
                        43.15908900           0.07209060
                        12.09866300           0.23715420
                         3.80632320           0.46919870
                         1.27289030           0.35652020
    S   3 1.00
                         3.19646310          -0.11264870
                         0.74781330          -0.22950640
                         0.21996630           1.18691670
    P   3 1.00
                         3.19646310           0.05598020
                         0.74781330           0.26155060
                         0.21996630           0.79397230
    S   1 1.00
                         0.08230990           1.00000000
    P   1 1.00
                         0.08230990           1.00000000
    ****
   BE   7
    S   6 1.00
                      1264.58570000           0.00194480
                       189.93681000           0.01483510
                        43.15908900           0.07209060
                        12.09866300           0.23715420
                         3.80632320           0.46919870
                         1.27289030           0.35652020
    S   3 1.00
                         3.19646310          -0.11264870
                         0.74781330          -0.22950640
                         0.21996630           1.18691670
    P   3 1.00
                         3.19646310           0.05598020
                         0.74781330           0.26155060
                         0.21996630           0.79397230
    S   1 1.00
                         0.08230990           1.00000000
    P   1 1.00
                         0.08230990           1.00000000
    ****
   BE   8
    S   6 1.00
                      1264.58570000           0.00194480
                       189.93681000           0.01483510
                        43.15908900           0.07209060
                        12.09866300           0.23715420
                         3.80632320           0.46919870
                         1.27289030           0.35652020
    S   3 1.00
                         3.19646310          -0.11264870
                         0.74781330          -0.22950640
                         0.21996630           1.18691670
    P   3 1.00
                         3.19646310           0.05598020
                         0.74781330           0.26155060
                         0.21996630           0.79397230
    S   1 1.00
                         0.08230990           1.00000000
    P   1 1.00
                         0.08230990           1.00000000
    ****
   BE   9
    S   6 1.00
                      1264.58570000           0.00194480
                       189.93681000           0.01483510
                        43.15908900           0.07209060
                        12.09866300           0.23715420
                         3.80632320           0.46919870
                         1.27289030           0.35652020
    S   3 1.00
                         3.19646310          -0.11264870
                         0.74781330          -0.22950640
                         0.21996630           1.18691670
    P   3 1.00
                         3.19646310           0.05598020
                         0.74781330           0.26155060
                         0.21996630           0.79397230
    S   1 1.00
                         0.08230990           1.00000000
    P   1 1.00
                         0.08230990           1.00000000
    ****

  ==> Pre-Iterations <==

   -------------------------------------------------------
    Irrep   Nso     Nmo     Nalpha   Nbeta   Ndocc  Nsocc
   -------------------------------------------------------
     Ag        43      43       0       0       0       0
     B1g       16      16       0       0       0       0
     B2g       16      16       0       0       0       0
     B3g        0       0       0       0       0       0
     Au         0       0       0       0       0       0
     B1u       18      18       0       0       0       0
     B2u       18      18       0       0       0       0
     B3u       42      42       0       0       0       0
   -------------------------------------------------------
    Total     153     153      34      34      34       0
   -------------------------------------------------------

  ==> Integral Setup <==

  Using in-core PK algorithm.
   Calculation information:
      Number of atoms:                  17
      Number of AO shells:              85
      Number of primitives:            238
      Number of atomic orbitals:       153
      Number of basis functions:       153

      Integral cutoff                 1.00e-12
      Number of threads:                 1

  Performing in-core PK
  Using 138803742 doubles for integral storage.
  We computed 352710 shell quartets total.
  Whereas there are 6681340 unique shell quartets.
  ==> DiskJK: Disk-Based J/K Matrices <==

    J tasked:                  Yes
    K tasked:                  Yes
    wK tasked:                  No
    Memory (MB):             17166
    Schwarz Cutoff:          1E-12

    OpenMP threads:              1
  Minimum eigenvalue in the overlap matrix is 1.0042745913E-01.
  Using Symmetric Orthogonalization.
  SCF Guess: Superposition of Atomic Densities via on-the-fly atomic UHF.

  ==> Iterations <==

                        Total Energy        Delta E     RMS |[F,P]|

   @RHF iter   0:  -247.64945390879274   -2.47649e+02   9.66947e-04 
   @RHF iter   1:  -247.63843555122997    1.10184e-02   2.14641e-04 
   @RHF iter   2:  -247.63912756243730   -6.92011e-04   7.08526e-05 DIIS
   @RHF iter   3:  -247.63921796531412   -9.04029e-05   3.55000e-06 DIIS
   @RHF iter   4:  -247.63921812831114   -1.62997e-07   1.72894e-07 DIIS
   @RHF iter   5:  -247.63921812857967   -2.68528e-10   3.17521e-08 DIIS
   @RHF iter   6:  -247.63921812858996   -1.02887e-11   3.84742e-09 DIIS

  ==> Post-Iterations <==

    Orbital Energies (a.u.)
    -----------------------

    Doubly Occupied:                                                      

       1B3u   -4.708045     1Ag    -4.708045     2B3u   -4.707929  
       2Ag    -4.707929     3B3u   -4.707888     3Ag    -4.707888  
       4B3u   -4.707872     4Ag    -4.707872     5Ag    -4.707865  
       5B3u   -4.707865     6Ag    -4.707861     6B3u   -4.707861  
       7Ag    -4.707860     7B3u   -4.707859     8Ag    -4.707857  
       8B3u   -4.707375     9Ag    -4.707375    10Ag    -0.317367  
       9B3u   -0.316762    11Ag    -0.315737    10B3u   -0.314306  
      12Ag    -0.312492    11B3u   -0.310328    13Ag    -0.307857  
      12B3u   -0.305131    14Ag    -0.302216    13B3u   -0.299187  
      15Ag    -0.296132    14B3u   -0.293151    16Ag    -0.290350  
      15B3u   -0.287842    17Ag    -0.285734    16B3u   -0.284129  
      18Ag    -0.283111  

    Virtual:                                                              

      17B3u    0.038077    19Ag     0.040248    18B3u    0.043845  
      20Ag     0.048794    19B3u    0.054993    21Ag     0.062326  
       1B2u    0.068264     1B1u    0.068264     1B1g    0.068849  
       1B2g    0.068849     2B2u    0.069837     2B1u    0.069837  
      20B3u    0.070665     2B2g    0.071206     2B1g    0.071206  
       3B1u    0.072924     3B2u    0.072924     3B2g    0.074947  
       3B1g    0.074947     4B2u    0.077225     4B1u    0.077225  
       4B2g    0.079696     4B1g    0.079696    22Ag     0.079872  
       5B2u    0.082291     5B1u    0.082291     5B2g    0.084932  
       5B1g    0.084932     6B2u    0.087537     6B1u    0.087537  
      21B3u    0.089788     6B2g    0.090022     6B1g    0.090022  
       7B1u    0.092302     7B2u    0.092302     7B1g    0.094299  
       7B2g    0.094299     8B2u    0.095943     8B1u    0.095943  
       8B1g    0.097175     8B2g    0.097175     9B1u    0.097949  
       9B2u    0.097949    23Ag     0.100230    22B3u    0.110963  
      24Ag     0.121690    23B3u    0.132031    25Ag     0.141528  
      24B3u    0.149672    26Ag     0.155952    25B3u    0.159934  
      27Ag     0.396092    26B3u    0.397220    28Ag     0.399120  
      27B3u    0.401776    29Ag     0.405144    28B3u    0.409158  
      30Ag     0.413731    29B3u    0.418763    31Ag     0.424150  
      30B3u    0.429782    32Ag     0.435546    31B3u    0.441321  
      10B1u    0.442789    10B2u    0.442789     9B2g    0.443584  
       9B1g    0.443584    11B2u    0.444938    11B1u    0.444938  
      10B1g    0.446854    10B2g    0.446854    33Ag     0.446959  
      12B2u    0.449328    12B1u    0.449328    32B3u    0.452279  
      11B2g    0.452350    11B1g    0.452350    13B2u    0.455899  
      13B1u    0.455899    34Ag     0.457028    12B2g    0.459936  
      12B1g    0.459936    33B3u    0.460860    35Ag     0.464188  
      14B1u    0.464397    14B2u    0.464397    34B3u    0.464428  
      13B2g    0.469188    13B1g    0.469188    15B1u    0.474177  
      15B2u    0.474177    14B2g    0.479197    14B1g    0.479197  
      16B1u    0.484042    16B2u    0.484042    15B2g    0.488481  
      15B1g    0.488481    17B1u    0.492274    17B2u    0.492274  
      16B2g    0.495191    16B1g    0.495191    18B2u    0.497042  
      18B1u    0.497042    36Ag     0.524034    35B3u    0.526733  
      37Ag     0.530881    36B3u    0.536157    38Ag     0.542347  
      37B3u    0.549361    39Ag     0.557208    38B3u    0.565973  
      40Ag     0.575779    39B3u    0.586744    41Ag     0.598905  
      40B3u    0.612102    42Ag     0.625836    41B3u    0.639131  
      43Ag     0.650533    42B3u    0.658346  

    Final Occupation by Irrep:
             Ag   B1g   B2g   B3g    Au   B1u   B2u   B3u 
    DOCC [    18,    0,    0,    0,    0,    0,    0,   16 ]

  Energy converged.

  @RHF Final Energy:  -247.63921812858996

   => Energetics <=

    Nuclear Repulsion Energy =             78.0310936902235852
    One-Electron Energy =                -481.0304702142709630
    Two-Electron Energy =                 155.3601583954573471
    DFT Exchange-Correlation Energy =       0.0000000000000000
    Empirical Dispersion Energy =           0.0000000000000000
    PCM Polarization Energy =               0.0000000000000000
    EFP Energy =                            0.0000000000000000
    Total Energy =                       -247.6392181285900165


  Saving occupied orbitals to File 180.

*** tstop() called on chemistry.org at Mon Jan  8 19:38:42 2018
Module time:
	user time   =       2.56 seconds =       0.04 minutes
	system time =       0.25 seconds =       0.00 minutes
	total time  =          2 seconds =       0.03 minutes
Total time:
	user time   =       2.56 seconds =       0.04 minutes
	system time =       0.25 seconds =       0.00 minutes
	total time  =          2 seconds =       0.03 minutes


Properties will be evaluated at   0.000000,   0.000000,   0.000000 Bohr

Properties computed using the SCF density matrix

  Nuclear Dipole Moment: (a.u.)
     X:     0.0000      Y:    -0.0000      Z:     0.0000

  Electronic Dipole Moment: (a.u.)
     X:     0.0000      Y:     0.0000      Z:     0.0000

  Dipole Moment: (a.u.)
     X:     0.0000      Y:    -0.0000      Z:     0.0000     Total:     0.0000

  Dipole Moment: (Debye)
     X:     0.0000      Y:    -0.0000      Z:     0.0000     Total:     0.0000

 MINTS: Wrapper to libmints.
   by Justin Turney

   Calculation information:
      Number of atoms:                  17
      Number of AO shells:              85
      Number of SO shells:              45
      Number of primitives:            238
      Number of atomic orbitals:       153
      Number of basis functions:       153

      Number of irreps:                  8
      Integral cutoff                 0.00e+00
      Number of functions per irrep: [  43   16   16    0    0   18   18   42 ]

 OEINTS: Overlap, kinetic, potential, dipole, and quadrupole integrals
         stored in file 35.

      Computing two-electron integrals...done
      Computed 10170022 non-zero two-electron integrals.
        Stored in file 33.


*** tstart() called on chemistry.org
*** at Mon Jan  8 19:38:56 2018


	Wfn Parameters:
	--------------------
	Wavefunction         = CCSD_T
	Number of irreps     = 8
	Number of MOs        = 153
	Number of active MOs = 136
	AO-Basis             = NONE
	Semicanonical        = false
	Reference            = RHF
	Print Level          = 1

	IRREP	# MOs	# FZDC	# DOCC	# SOCC	# VIRT	# FZVR
	-----	-----	------	------	------	------	------
	 Ag	   43	    9	    9	    0	    25	    0
	 B1g	   16	    0	    0	    0	    16	    0
	 B2g	   16	    0	    0	    0	    16	    0
	 B3g	   0	    0	    0	    0	    0	    0
	 Au	   0	    0	    0	    0	    0	    0
	 B1u	   18	    0	    0	    0	    18	    0
	 B2u	   18	    0	    0	    0	    18	    0
	 B3u	   42	    8	    8	    0	    26	    0
	Transforming integrals...
	IWL integrals will be deleted.
	(OO|OO)...
	Presorting SO-basis two-electron integrals.
	Sorting File: SO Ints (nn|nn) nbuckets = 1
	Transforming the one-electron integrals and constructing Fock matrices
	Starting first half-transformation.
	Sorting half-transformed integrals.
	First half integral transformation complete.
	Starting second half-transformation.
	Two-electron integral transformation complete.
	(OO|OV)...
	Starting second half-transformation.
	Two-electron integral transformation complete.
	(OO|VV)...
	Starting second half-transformation.
	Two-electron integral transformation complete.
	(OV|OO)...
	Starting first half-transformation.
	Sorting half-transformed integrals.
	First half integral transformation complete.
	Starting second half-transformation.
	Two-electron integral transformation complete.
	(OV|OV)...
	Starting second half-transformation.
	Two-electron integral transformation complete.
	(OV|VV)...
	Starting second half-transformation.
	Two-electron integral transformation complete.
	(VV|OO)...
	Starting first half-transformation.
	Sorting half-transformed integrals.
	First half integral transformation complete.
	Starting second half-transformation.
	Two-electron integral transformation complete.
	(VV|OV)...
	Starting second half-transformation.
	Two-electron integral transformation complete.
	(VV|VV)...
	Starting second half-transformation.
	Two-electron integral transformation complete.
	Frozen core energy     =   -289.88829100070291

	Size of irrep 0 of <ab|cd> integrals:      6.057 (MW) /     48.452 (MB)
	Size of irrep 1 of <ab|cd> integrals:      3.014 (MW) /     24.110 (MB)
	Size of irrep 2 of <ab|cd> integrals:      3.014 (MW) /     24.110 (MB)
	Size of irrep 3 of <ab|cd> integrals:      1.346 (MW) /     10.765 (MB)
	Size of irrep 4 of <ab|cd> integrals:      1.327 (MW) /     10.617 (MB)
	Size of irrep 5 of <ab|cd> integrals:      3.000 (MW) /     23.999 (MB)
	Size of irrep 6 of <ab|cd> integrals:      3.000 (MW) /     23.999 (MB)
	Size of irrep 7 of <ab|cd> integrals:      6.012 (MW) /     48.098 (MB)
	Total:                                    26.769 (MW) /    214.149 (MB)

	Size of irrep 0 of <ia|bc> integrals:      1.066 (MW) /      8.525 (MB)
	Size of irrep 1 of <ia|bc> integrals:      0.500 (MW) /      4.000 (MB)
	Size of irrep 2 of <ia|bc> integrals:      0.500 (MW) /      4.000 (MB)
	Size of irrep 3 of <ia|bc> integrals:      0.000 (MW) /      0.000 (MB)
	Size of irrep 4 of <ia|bc> integrals:      0.000 (MW) /      0.000 (MB)
	Size of irrep 5 of <ia|bc> integrals:      0.502 (MW) /      4.018 (MB)
	Size of irrep 6 of <ia|bc> integrals:      0.502 (MW) /      4.018 (MB)
	Size of irrep 7 of <ia|bc> integrals:      1.064 (MW) /      8.513 (MB)
	Total:                                     4.134 (MW) /     33.074 (MB)

	Size of irrep 0 of tijab amplitudes:       0.357 (MW) /      2.855 (MB)
	Size of irrep 1 of tijab amplitudes:       0.000 (MW) /      0.000 (MB)
	Size of irrep 2 of tijab amplitudes:       0.000 (MW) /      0.000 (MB)
	Size of irrep 3 of tijab amplitudes:       0.000 (MW) /      0.000 (MB)
	Size of irrep 4 of tijab amplitudes:       0.000 (MW) /      0.000 (MB)
	Size of irrep 5 of tijab amplitudes:       0.000 (MW) /      0.000 (MB)
	Size of irrep 6 of tijab amplitudes:       0.000 (MW) /      0.000 (MB)
	Size of irrep 7 of tijab amplitudes:       0.353 (MW) /      2.825 (MB)
	Total:                                     0.710 (MW) /      5.679 (MB)

	Nuclear Rep. energy          =     78.03109369022359
	SCF energy                   =   -247.63921812858996
	One-electron energy          =    -61.32037632453006
	Two-electron energy          =     25.53835550641526
	Reference energy             =   -247.63921812859411

*** tstop() called on chemistry.org at Mon Jan  8 19:39:01 2018
Module time:
	user time   =       3.20 seconds =       0.05 minutes
	system time =       1.59 seconds =       0.03 minutes
	total time  =          5 seconds =       0.08 minutes
Total time:
	user time   =      19.25 seconds =       0.32 minutes
	system time =       1.97 seconds =       0.03 minutes
	total time  =         21 seconds =       0.35 minutes

*** tstart() called on chemistry.org
*** at Mon Jan  8 19:39:01 2018

            **************************
            *                        *
            *        CCENERGY        *
            *                        *
            **************************

    Nuclear Rep. energy (wfn)     =   78.031093690223585
    SCF energy          (wfn)     = -247.639218128589960
    Reference energy    (file100) = -247.639218128594109

    Input parameters:
    -----------------
    Wave function   =     CCSD_T
    Reference wfn   =     RHF
    Brueckner       =     No
    Memory (Mbytes) =     24000.0
    Maxiter         =     50
    R_Convergence   =     1.0e-07
    E_Convergence   =     1.0e-10
    Restart         =     Yes
    DIIS            =     Yes
    AO Basis        =     NONE
    ABCD            =     NEW
    Cache Level     =     2
    Cache Type      =     LOW
    Print Level     =     1
    Num. of threads =     1
    # Amps to Print =     10
    Print MP2 Amps? =     No
    Analyze T2 Amps =     No
    Print Pair Ener =     No
    Local CC        =     No
    SCS-MP2         =     False
    SCSN-MP2        =     False
    SCS-CCSD        =     False

MP2 correlation energy -0.4029858823369876
                Solving CC Amplitude Equations
                ------------------------------
  Iter             Energy              RMS        T1Diag      D1Diag    New D1Diag    D2Diag
  ----     ---------------------    ---------   ----------  ----------  ----------   --------
     0        -0.402985882336960    0.000e+00    0.000000    0.000000    0.000000    0.167998
     1        -0.594001059880644    3.433e-01    0.004450    0.006782    0.006782    0.252359
     2        -0.780650588311252    1.794e-01    0.011983    0.018873    0.018873    0.339827
     3        -0.776969876245926    1.620e-02    0.013220    0.021178    0.021178    0.339533
     4        -0.780817458183384    4.838e-03    0.013511    0.021753    0.021753    0.341377
     5        -0.781720329582511    9.964e-04    0.013604    0.021959    0.021959    0.341779
     6        -0.781139118203388    6.308e-04    0.013580    0.021922    0.021922    0.341501
     7        -0.781054102761145    8.146e-05    0.013578    0.021920    0.021920    0.341462
     8        -0.781080709286087    4.839e-05    0.013580    0.021923    0.021923    0.341475
     9        -0.781092122886787    1.637e-05    0.013580    0.021924    0.021924    0.341481
    10        -0.781091891025870    7.792e-06    0.013580    0.021923    0.021923    0.341481
    11        -0.781091523069189    4.583e-06    0.013580    0.021923    0.021923    0.341481
    12        -0.781091540607035    1.669e-06    0.013580    0.021923    0.021923    0.341481
    13        -0.781091601768158    8.666e-07    0.013580    0.021923    0.021923    0.341481
    14        -0.781091615164484    3.220e-07    0.013580    0.021923    0.021923    0.341481
    15        -0.781091616487489    1.382e-07    0.013580    0.021923    0.021923    0.341481
    16        -0.781091610132908    6.990e-08    0.013580    0.021923    0.021923    0.341481
    17        -0.781091608580333    2.454e-08    0.013580    0.021923    0.021923    0.341481
    18        -0.781091607469608    6.609e-09    0.013580    0.021923    0.021923    0.341481
    19        -0.781091607085454    3.128e-09    0.013580    0.021923    0.021923    0.341481
    20        -0.781091607086251    1.795e-09    0.013580    0.021923    0.021923    0.341481
    21        -0.781091607151603    1.001e-09    0.013580    0.021923    0.021923    0.341481

    Iterations converged.


    Largest TIA Amplitudes:
              0   8        -0.0178183511
              9 102         0.0175130219
              1   9         0.0170402246
             10 103         0.0164483565
              2  10         0.0157804034
             11 104         0.0150690628
              3  11         0.0143339234
             12 105         0.0135816274
              8  17        -0.0131286299
              4  12         0.0128075290

    Largest TIjAb Amplitudes:
      4   4  61  61        -0.0189823326
      4   4  79  79        -0.0189823326
      4   4  97  97        -0.0180967697
      9   9   0   0        -0.0170817017
      0   0  93  93        -0.0170577335
      1   1  94  94        -0.0168649815
     10  10   1   1        -0.0165174172
      8   8  65  65        -0.0164497866
      8   8  83  83        -0.0164497866
     16  16  32  32        -0.0161162266

    SCF energy       (wfn)                    = -247.639218128589960
    Reference energy (file100)                = -247.639218128594109

    Opposite-spin MP2 correlation energy      =   -0.398176392459953
    Same-spin MP2 correlation energy          =   -0.004809489877007
    MP2 correlation energy                    =   -0.402985882336988
      * MP2 total energy                      = -248.042204010931101

    Opposite-spin CCSD correlation energy     =   -0.775942293459659
    Same-spin CCSD correlation energy         =   -0.005149317616344
    CCSD correlation energy                   =   -0.781091607151603
      * CCSD total energy                     = -248.420309735745718


*** tstop() called on chemistry.org at Mon Jan  8 19:39:12 2018
Module time:
	user time   =       7.64 seconds =       0.13 minutes
	system time =       3.79 seconds =       0.06 minutes
	total time  =         11 seconds =       0.18 minutes
Total time:
	user time   =      26.89 seconds =       0.45 minutes
	system time =       5.76 seconds =       0.10 minutes
	total time  =         32 seconds =       0.53 minutes

*** tstart() called on chemistry.org
*** at Mon Jan  8 19:39:12 2018

            **************************
            *                        *
            *        CCTRIPLES       *
            *                        *
            **************************


    Wave function   =    CCSD_T
    Reference wfn   =      RHF

    Nuclear Rep. energy (wfn)                =   78.031093690223585
    SCF energy          (wfn)                = -247.639218128589960
    Reference energy    (file100)            = -247.639218128594109
    CCSD energy         (file100)            =   -0.781091607151603
    Total CCSD energy   (file100)            = -248.420309735745718

    Number of ijk index combinations:              969
    Memory available in words        :      3000000000
    ~Words needed per explicit thread:           70304
    Number of threads for explicit ijk threading:    1

    (T) energy                                =   -0.001055507723395
      * CCSD(T) total energy                  = -248.421365243469097


*** tstop() called on chemistry.org at Mon Jan  8 19:39:30 2018
Module time:
	user time   =      13.71 seconds =       0.23 minutes
	system time =       3.49 seconds =       0.06 minutes
	total time  =         18 seconds =       0.30 minutes
Total time:
	user time   =      40.60 seconds =       0.68 minutes
	system time =       9.25 seconds =       0.15 minutes
	total time  =         50 seconds =       0.83 minutes

*** Psi4 exiting successfully. Buy a developer a beer!
