    -----------------------------------------------------------------------
          Psi4: An Open-Source Ab Initio Electronic Structure Package
                              Psi4 1.0.0 Driver

                          Git: Rev {master} 6a9a71b dirty

    J. M. Turney, A. C. Simmonett, R. M. Parrish, E. G. Hohenstein,
    F. A. Evangelista, J. T. Fermann, B. J. Mintz, L. A. Burns, J. J. Wilke,
    M. L. Abrams, N. J. Russ, M. L. Leininger, C. L. Janssen, E. T. Seidl,
    W. D. Allen, H. F. Schaefer, R. A. King, E. F. Valeev, C. D. Sherrill,
    and T. D. Crawford, WIREs Comput. Mol. Sci. 2, 556-565 (2012)
    (doi: 10.1002/wcms.93)

                         Additional Contributions by
    A. E. DePrince, U. Bozkaya, A. Yu. Sokolov, D. G. A. Smith, R. Di Remigio,
    R. M. Richard, J. F. Gonthier, H. R. McAlexander, M. Saitow, and
    B. P. Pritchard
    -----------------------------------------------------------------------


    Psi4 started on: Mon Jan  8 19:37:10 2018

    Process ID:  29765
    PSI4DATADIR: /home/yhliu/psi4conda/share/psi4
    Memory level set to 256.000 MB

  ==> Input File <==

--------------------------------------------------------------------------
memory 24 Gb
molecule beN {
0 1
Be   0.0    0.0 0.0
Be   4.5    0.0 0.0
Be   9.0    0.0 0.0
Be  13.5    0.0 0.0
Be  18.0    0.0 0.0
Be  22.5    0.0 0.0
Be  27.0    0.0 0.0
Be  31.5    0.0 0.0
Be  36.0    0.0 0.0
Be  40.5    0.0 0.0
Be  45.0    0.0 0.0
Be  49.5    0.0 0.0
Be  54.0    0.0 0.0
Be  58.5    0.0 0.0
units angstrom    
}

set basis 6-31g
set freeze_core true
set PRINT_BASIS True
set PUREAM False
set E_CONVERGENCE 1e-10
energy('ccsd(t)')
--------------------------------------------------------------------------
/home/yhliu/psi4conda/lib/python2.7/site-packages/v2rdm_casscf/v2rdm_casscf.so loaded.

  Memory set to  24.000 GiB by Python script.

*** tstart() called on chemistry.org
*** at Mon Jan  8 19:37:11 2018


         ---------------------------------------------------------
                                   SCF
            by Justin Turney, Rob Parrish, and Andy Simmonett
                              RHF Reference
                        1 Threads,  24000 MiB Core
         ---------------------------------------------------------

  ==> Geometry <==

    Molecular point group: d2h
    Full point group: D_inf_h

    Geometry (in Angstrom), charge = 0, multiplicity = 1:

       Center              X                  Y                   Z               Mass       
    ------------   -----------------  -----------------  -----------------  -----------------
          BE        -29.250000000000    -0.000000000000     0.000000000000     9.012182201000
          BE        -24.750000000000    -0.000000000000     0.000000000000     9.012182201000
          BE        -20.250000000000    -0.000000000000     0.000000000000     9.012182201000
          BE        -15.750000000000    -0.000000000000     0.000000000000     9.012182201000
          BE        -11.250000000000    -0.000000000000     0.000000000000     9.012182201000
          BE         -6.750000000000    -0.000000000000     0.000000000000     9.012182201000
          BE         -2.250000000000    -0.000000000000     0.000000000000     9.012182201000
          BE          2.250000000000     0.000000000000     0.000000000000     9.012182201000
          BE          6.750000000000     0.000000000000     0.000000000000     9.012182201000
          BE         11.250000000000     0.000000000000     0.000000000000     9.012182201000
          BE         15.750000000000     0.000000000000     0.000000000000     9.012182201000
          BE         20.250000000000     0.000000000000     0.000000000000     9.012182201000
          BE         24.750000000000     0.000000000000     0.000000000000     9.012182201000
          BE         29.250000000000     0.000000000000     0.000000000000     9.012182201000

  Running in d2h symmetry.

  Rotational constants: A = ************  B =      0.00041  C =      0.00041 [cm^-1]
  Rotational constants: A = ************  B =     12.17253  C =     12.17253 [MHz]
  Nuclear repulsion =   59.309001020846956

  Charge       = 0
  Multiplicity = 1
  Electrons    = 56
  Nalpha       = 28
  Nbeta        = 28

  ==> Algorithm <==

  SCF Algorithm Type is PK.
  DIIS enabled.
  MOM disabled.
  Fractional occupation disabled.
  Guess Type is SAD.
  Energy threshold   = 1.00e-10
  Density threshold  = 1.00e-08
  Integral threshold = 0.00e+00

  ==> Primary Basis <==

  Basis Set: 6-31G
    Number of shells: 70
    Number of basis function: 126
    Number of Cartesian functions: 126
    Spherical Harmonics?: false
    Max angular momentum: 1

  -AO BASIS SET INFORMATION:
    Name                   = 6-31G
    Total number of shells = 70
    Number of primitives   = 196
    Number of AO           = 126
    Number of SO           = 126
    Maximum AM             = 1
    Spherical Harmonics    = FALSE

  -Contraction Scheme:
    Atom   Type   All Primitives // Shells:
   ------ ------ --------------------------
       1    BE     10s 4p // 3s 2p 
       2    BE     10s 4p // 3s 2p 
       3    BE     10s 4p // 3s 2p 
       4    BE     10s 4p // 3s 2p 
       5    BE     10s 4p // 3s 2p 
       6    BE     10s 4p // 3s 2p 
       7    BE     10s 4p // 3s 2p 
       8    BE     10s 4p // 3s 2p 
       9    BE     10s 4p // 3s 2p 
      10    BE     10s 4p // 3s 2p 
      11    BE     10s 4p // 3s 2p 
      12    BE     10s 4p // 3s 2p 
      13    BE     10s 4p // 3s 2p 
      14    BE     10s 4p // 3s 2p 

  ==> AO Basis Functions <==

    [ 6-31G ]
    cartesian
    ****
   BE   1
    S   6 1.00
                      1264.58570000           0.00194480
                       189.93681000           0.01483510
                        43.15908900           0.07209060
                        12.09866300           0.23715420
                         3.80632320           0.46919870
                         1.27289030           0.35652020
    S   3 1.00
                         3.19646310          -0.11264870
                         0.74781330          -0.22950640
                         0.21996630           1.18691670
    P   3 1.00
                         3.19646310           0.05598020
                         0.74781330           0.26155060
                         0.21996630           0.79397230
    S   1 1.00
                         0.08230990           1.00000000
    P   1 1.00
                         0.08230990           1.00000000
    ****
   BE   2
    S   6 1.00
                      1264.58570000           0.00194480
                       189.93681000           0.01483510
                        43.15908900           0.07209060
                        12.09866300           0.23715420
                         3.80632320           0.46919870
                         1.27289030           0.35652020
    S   3 1.00
                         3.19646310          -0.11264870
                         0.74781330          -0.22950640
                         0.21996630           1.18691670
    P   3 1.00
                         3.19646310           0.05598020
                         0.74781330           0.26155060
                         0.21996630           0.79397230
    S   1 1.00
                         0.08230990           1.00000000
    P   1 1.00
                         0.08230990           1.00000000
    ****
   BE   3
    S   6 1.00
                      1264.58570000           0.00194480
                       189.93681000           0.01483510
                        43.15908900           0.07209060
                        12.09866300           0.23715420
                         3.80632320           0.46919870
                         1.27289030           0.35652020
    S   3 1.00
                         3.19646310          -0.11264870
                         0.74781330          -0.22950640
                         0.21996630           1.18691670
    P   3 1.00
                         3.19646310           0.05598020
                         0.74781330           0.26155060
                         0.21996630           0.79397230
    S   1 1.00
                         0.08230990           1.00000000
    P   1 1.00
                         0.08230990           1.00000000
    ****
   BE   4
    S   6 1.00
                      1264.58570000           0.00194480
                       189.93681000           0.01483510
                        43.15908900           0.07209060
                        12.09866300           0.23715420
                         3.80632320           0.46919870
                         1.27289030           0.35652020
    S   3 1.00
                         3.19646310          -0.11264870
                         0.74781330          -0.22950640
                         0.21996630           1.18691670
    P   3 1.00
                         3.19646310           0.05598020
                         0.74781330           0.26155060
                         0.21996630           0.79397230
    S   1 1.00
                         0.08230990           1.00000000
    P   1 1.00
                         0.08230990           1.00000000
    ****
   BE   5
    S   6 1.00
                      1264.58570000           0.00194480
                       189.93681000           0.01483510
                        43.15908900           0.07209060
                        12.09866300           0.23715420
                         3.80632320           0.46919870
                         1.27289030           0.35652020
    S   3 1.00
                         3.19646310          -0.11264870
                         0.74781330          -0.22950640
                         0.21996630           1.18691670
    P   3 1.00
                         3.19646310           0.05598020
                         0.74781330           0.26155060
                         0.21996630           0.79397230
    S   1 1.00
                         0.08230990           1.00000000
    P   1 1.00
                         0.08230990           1.00000000
    ****
   BE   6
    S   6 1.00
                      1264.58570000           0.00194480
                       189.93681000           0.01483510
                        43.15908900           0.07209060
                        12.09866300           0.23715420
                         3.80632320           0.46919870
                         1.27289030           0.35652020
    S   3 1.00
                         3.19646310          -0.11264870
                         0.74781330          -0.22950640
                         0.21996630           1.18691670
    P   3 1.00
                         3.19646310           0.05598020
                         0.74781330           0.26155060
                         0.21996630           0.79397230
    S   1 1.00
                         0.08230990           1.00000000
    P   1 1.00
                         0.08230990           1.00000000
    ****
   BE   7
    S   6 1.00
                      1264.58570000           0.00194480
                       189.93681000           0.01483510
                        43.15908900           0.07209060
                        12.09866300           0.23715420
                         3.80632320           0.46919870
                         1.27289030           0.35652020
    S   3 1.00
                         3.19646310          -0.11264870
                         0.74781330          -0.22950640
                         0.21996630           1.18691670
    P   3 1.00
                         3.19646310           0.05598020
                         0.74781330           0.26155060
                         0.21996630           0.79397230
    S   1 1.00
                         0.08230990           1.00000000
    P   1 1.00
                         0.08230990           1.00000000
    ****

  ==> Pre-Iterations <==

   -------------------------------------------------------
    Irrep   Nso     Nmo     Nalpha   Nbeta   Ndocc  Nsocc
   -------------------------------------------------------
     Ag        35      35       0       0       0       0
     B1g       14      14       0       0       0       0
     B2g       14      14       0       0       0       0
     B3g        0       0       0       0       0       0
     Au         0       0       0       0       0       0
     B1u       14      14       0       0       0       0
     B2u       14      14       0       0       0       0
     B3u       35      35       0       0       0       0
   -------------------------------------------------------
    Total     126     126      28      28      28       0
   -------------------------------------------------------

  ==> Integral Setup <==

  Using in-core PK algorithm.
   Calculation information:
      Number of atoms:                  14
      Number of AO shells:              70
      Number of primitives:            196
      Number of atomic orbitals:       126
      Number of basis functions:       126

      Integral cutoff                 1.00e-12
      Number of threads:                 1

  Performing in-core PK
  Using 64024002 doubles for integral storage.
  We computed 233250 shell quartets total.
  Whereas there are 3088855 unique shell quartets.
  ==> DiskJK: Disk-Based J/K Matrices <==

    J tasked:                  Yes
    K tasked:                  Yes
    wK tasked:                  No
    Memory (MB):             17166
    Schwarz Cutoff:          1E-12

    OpenMP threads:              1
  Minimum eigenvalue in the overlap matrix is 1.0043876346E-01.
  Using Symmetric Orthogonalization.
  SCF Guess: Superposition of Atomic Densities via on-the-fly atomic UHF.

  ==> Iterations <==

                        Total Energy        Delta E     RMS |[F,P]|

   @RHF iter   0:  -203.94644955660829   -2.03946e+02   1.05915e-03 
   @RHF iter   1:  -203.93750027376893    8.94928e-03   2.35020e-04 
   @RHF iter   2:  -203.93806212912233   -5.61855e-04   7.75319e-05 DIIS
   @RHF iter   3:  -203.93813544503905   -7.33159e-05   3.91482e-06 DIIS
   @RHF iter   4:  -203.93813557905588   -1.34017e-07   2.06214e-07 DIIS
   @RHF iter   5:  -203.93813557931406   -2.58183e-10   3.63477e-08 DIIS
   @RHF iter   6:  -203.93813557932344   -9.37916e-12   4.25350e-09 DIIS

  ==> Post-Iterations <==

    Orbital Energies (a.u.)
    -----------------------

    Doubly Occupied:                                                      

       1B3u   -4.708046     1Ag    -4.708046     2B3u   -4.707930  
       2Ag    -4.707930     3B3u   -4.707889     3Ag    -4.707889  
       4B3u   -4.707873     4Ag    -4.707873     5B3u   -4.707867  
       5Ag    -4.707867     6B3u   -4.707865     6Ag    -4.707862  
       7B3u   -4.707375     7Ag    -4.707375     8Ag    -0.317284  
       8B3u   -0.316409     9Ag    -0.314930     9B3u   -0.312883  
      10Ag    -0.310321    10B3u   -0.307317    11Ag    -0.303967  
      11B3u   -0.300388    12Ag    -0.296725    12B3u   -0.293140  
      13Ag    -0.289818    13B3u   -0.286947    14Ag    -0.284711  
      14B3u   -0.283269  

    Virtual:                                                              

      15Ag     0.038381    15B3u    0.041478    16Ag     0.046583  
      16B3u    0.053549    17Ag     0.062184     1B2u    0.068343  
       1B1u    0.068343     1B1g    0.069188     1B2g    0.069188  
       2B2u    0.070605     2B1u    0.070605    17B3u    0.072274  
       2B1g    0.072546     2B2g    0.072546     3B2u    0.074942  
       3B1u    0.074942     3B1g    0.077703     3B2g    0.077703  
       4B2u    0.080723     4B1u    0.080723    18Ag     0.083579  
       4B1g    0.083875     4B2g    0.083875     5B2u    0.087021  
       5B1u    0.087021     5B1g    0.090017     5B2g    0.090017  
       6B2u    0.092719     6B1u    0.092719     6B1g    0.094993  
       6B2g    0.094993    18B3u    0.095818     7B2u    0.096726  
       7B1u    0.096726     7B1g    0.097828     7B2g    0.097828  
      19Ag     0.108631    19B3u    0.121540    20Ag     0.133898  
      20B3u    0.144901    21Ag     0.153653    21B3u    0.159325  
      22Ag     0.396263    22B3u    0.397927    23Ag     0.400713  
      23B3u    0.404559    24Ag     0.409349    24B3u    0.414932  
      25Ag     0.421130    25B3u    0.427763    26Ag     0.434644  
      26B3u    0.441571     8B2u    0.442899     8B1u    0.442899  
       8B1g    0.444051     8B2g    0.444051     9B2u    0.446013  
       9B1u    0.446013    27Ag     0.448306     9B1g    0.448785  
       9B2g    0.448785    10B2u    0.452351    10B1u    0.452351  
      27B3u    0.454521    10B1g    0.456675    10B2g    0.456675  
      28Ag     0.459745    11B2u    0.461682    11B1u    0.461682  
      28B3u    0.464045    29Ag     0.464512    11B1g    0.467248  
      11B2g    0.467248    12B2u    0.473178    12B1u    0.473178  
      12B1g    0.479200    12B2g    0.479200    13B2u    0.484968  
      13B1u    0.484968    13B1g    0.490084    13B2g    0.490084  
      14B2u    0.494136    14B1u    0.494136    14B1g    0.496761  
      14B2g    0.496761    29B3u    0.524460    30Ag     0.528319  
      30B3u    0.534107    31Ag     0.541350    31B3u    0.549833  
      32Ag     0.559566    32B3u    0.570711    33Ag     0.583489  
      33B3u    0.598028    34Ag     0.614097    34B3u    0.630752  
      35Ag     0.646019    35B3u    0.657063  

    Final Occupation by Irrep:
             Ag   B1g   B2g   B3g    Au   B1u   B2u   B3u 
    DOCC [    14,    0,    0,    0,    0,    0,    0,   14 ]

  Energy converged.

  @RHF Final Energy:  -203.93813557932344

   => Energetics <=

    Nuclear Repulsion Energy =             59.3090010208469565
    One-Electron Energy =                -386.2386836562222925
    Two-Electron Energy =                 122.9915470560519424
    DFT Exchange-Correlation Energy =       0.0000000000000000
    Empirical Dispersion Energy =           0.0000000000000000
    PCM Polarization Energy =               0.0000000000000000
    EFP Energy =                            0.0000000000000000
    Total Energy =                       -203.9381355793233865


  Saving occupied orbitals to File 180.

*** tstop() called on chemistry.org at Mon Jan  8 19:37:12 2018
Module time:
	user time   =       1.54 seconds =       0.03 minutes
	system time =       0.12 seconds =       0.00 minutes
	total time  =          1 seconds =       0.02 minutes
Total time:
	user time   =       1.54 seconds =       0.03 minutes
	system time =       0.12 seconds =       0.00 minutes
	total time  =          1 seconds =       0.02 minutes


Properties will be evaluated at   0.000000,   0.000000,   0.000000 Bohr

Properties computed using the SCF density matrix

  Nuclear Dipole Moment: (a.u.)
     X:    -0.0000      Y:     0.0000      Z:     0.0000

  Electronic Dipole Moment: (a.u.)
     X:     0.0000      Y:     0.0000      Z:     0.0000

  Dipole Moment: (a.u.)
     X:    -0.0000      Y:     0.0000      Z:     0.0000     Total:     0.0000

  Dipole Moment: (Debye)
     X:    -0.0000      Y:     0.0000      Z:     0.0000     Total:     0.0000

 MINTS: Wrapper to libmints.
   by Justin Turney

   Calculation information:
      Number of atoms:                  14
      Number of AO shells:              70
      Number of SO shells:              35
      Number of primitives:            196
      Number of atomic orbitals:       126
      Number of basis functions:       126

      Number of irreps:                  8
      Integral cutoff                 0.00e+00
      Number of functions per irrep: [  35   14   14    0    0   14   14   35 ]

 OEINTS: Overlap, kinetic, potential, dipole, and quadrupole integrals
         stored in file 35.

      Computing two-electron integrals...done
      Computed 4755729 non-zero two-electron integrals.
        Stored in file 33.


*** tstart() called on chemistry.org
*** at Mon Jan  8 19:37:19 2018


	Wfn Parameters:
	--------------------
	Wavefunction         = CCSD_T
	Number of irreps     = 8
	Number of MOs        = 126
	Number of active MOs = 112
	AO-Basis             = NONE
	Semicanonical        = false
	Reference            = RHF
	Print Level          = 1

	IRREP	# MOs	# FZDC	# DOCC	# SOCC	# VIRT	# FZVR
	-----	-----	------	------	------	------	------
	 Ag	   35	    7	    7	    0	    21	    0
	 B1g	   14	    0	    0	    0	    14	    0
	 B2g	   14	    0	    0	    0	    14	    0
	 B3g	   0	    0	    0	    0	    0	    0
	 Au	   0	    0	    0	    0	    0	    0
	 B1u	   14	    0	    0	    0	    14	    0
	 B2u	   14	    0	    0	    0	    14	    0
	 B3u	   35	    7	    7	    0	    21	    0
	Transforming integrals...
	IWL integrals will be deleted.
	(OO|OO)...
	Presorting SO-basis two-electron integrals.
	Sorting File: SO Ints (nn|nn) nbuckets = 1
	Transforming the one-electron integrals and constructing Fock matrices
	Starting first half-transformation.
	Sorting half-transformed integrals.
	First half integral transformation complete.
	Starting second half-transformation.
	Two-electron integral transformation complete.
	(OO|OV)...
	Starting second half-transformation.
	Two-electron integral transformation complete.
	(OO|VV)...
	Starting second half-transformation.
	Two-electron integral transformation complete.
	(OV|OO)...
	Starting first half-transformation.
	Sorting half-transformed integrals.
	First half integral transformation complete.
	Starting second half-transformation.
	Two-electron integral transformation complete.
	(OV|OV)...
	Starting second half-transformation.
	Two-electron integral transformation complete.
	(OV|VV)...
	Starting second half-transformation.
	Two-electron integral transformation complete.
	(VV|OO)...
	Starting first half-transformation.
	Sorting half-transformed integrals.
	First half integral transformation complete.
	Starting second half-transformation.
	Two-electron integral transformation complete.
	(VV|OV)...
	Starting second half-transformation.
	Two-electron integral transformation complete.
	(VV|VV)...
	Starting second half-transformation.
	Two-electron integral transformation complete.
	Frozen core energy     =   -235.01760932966133

	Size of irrep 0 of <ab|cd> integrals:      2.776 (MW) /     22.204 (MB)
	Size of irrep 1 of <ab|cd> integrals:      1.383 (MW) /     11.064 (MB)
	Size of irrep 2 of <ab|cd> integrals:      1.383 (MW) /     11.064 (MB)
	Size of irrep 3 of <ab|cd> integrals:      0.615 (MW) /      4.917 (MB)
	Size of irrep 4 of <ab|cd> integrals:      0.615 (MW) /      4.917 (MB)
	Size of irrep 5 of <ab|cd> integrals:      1.383 (MW) /     11.064 (MB)
	Size of irrep 6 of <ab|cd> integrals:      1.383 (MW) /     11.064 (MB)
	Size of irrep 7 of <ab|cd> integrals:      2.776 (MW) /     22.204 (MB)
	Total:                                    12.312 (MW) /     98.499 (MB)

	Size of irrep 0 of <ia|bc> integrals:      0.490 (MW) /      3.918 (MB)
	Size of irrep 1 of <ia|bc> integrals:      0.230 (MW) /      1.844 (MB)
	Size of irrep 2 of <ia|bc> integrals:      0.230 (MW) /      1.844 (MB)
	Size of irrep 3 of <ia|bc> integrals:      0.000 (MW) /      0.000 (MB)
	Size of irrep 4 of <ia|bc> integrals:      0.000 (MW) /      0.000 (MB)
	Size of irrep 5 of <ia|bc> integrals:      0.230 (MW) /      1.844 (MB)
	Size of irrep 6 of <ia|bc> integrals:      0.230 (MW) /      1.844 (MB)
	Size of irrep 7 of <ia|bc> integrals:      0.490 (MW) /      3.918 (MB)
	Total:                                     1.902 (MW) /     15.213 (MB)

	Size of irrep 0 of tijab amplitudes:       0.163 (MW) /      1.306 (MB)
	Size of irrep 1 of tijab amplitudes:       0.000 (MW) /      0.000 (MB)
	Size of irrep 2 of tijab amplitudes:       0.000 (MW) /      0.000 (MB)
	Size of irrep 3 of tijab amplitudes:       0.000 (MW) /      0.000 (MB)
	Size of irrep 4 of tijab amplitudes:       0.000 (MW) /      0.000 (MB)
	Size of irrep 5 of tijab amplitudes:       0.000 (MW) /      0.000 (MB)
	Size of irrep 6 of tijab amplitudes:       0.000 (MW) /      0.000 (MB)
	Size of irrep 7 of tijab amplitudes:       0.163 (MW) /      1.306 (MB)
	Total:                                     0.327 (MW) /      2.612 (MB)

	Nuclear Rep. energy          =     59.30900102084694
	SCF energy                   =   -203.93813557932344
	One-electron energy          =    -48.02283813245033
	Two-electron energy          =     19.79331086193847
	Reference energy             =   -203.93813557932623

*** tstop() called on chemistry.org at Mon Jan  8 19:37:21 2018
Module time:
	user time   =       1.41 seconds =       0.02 minutes
	system time =       0.75 seconds =       0.01 minutes
	total time  =          2 seconds =       0.03 minutes
Total time:
	user time   =       9.32 seconds =       0.16 minutes
	system time =       0.93 seconds =       0.02 minutes
	total time  =         10 seconds =       0.17 minutes

*** tstart() called on chemistry.org
*** at Mon Jan  8 19:37:21 2018

            **************************
            *                        *
            *        CCENERGY        *
            *                        *
            **************************

    Nuclear Rep. energy (wfn)     =   59.309001020846942
    SCF energy          (wfn)     = -203.938135579323443
    Reference energy    (file100) = -203.938135579326229

    Input parameters:
    -----------------
    Wave function   =     CCSD_T
    Reference wfn   =     RHF
    Brueckner       =     No
    Memory (Mbytes) =     24000.0
    Maxiter         =     50
    R_Convergence   =     1.0e-07
    E_Convergence   =     1.0e-10
    Restart         =     Yes
    DIIS            =     Yes
    AO Basis        =     NONE
    ABCD            =     NEW
    Cache Level     =     2
    Cache Type      =     LOW
    Print Level     =     1
    Num. of threads =     1
    # Amps to Print =     10
    Print MP2 Amps? =     No
    Analyze T2 Amps =     No
    Print Pair Ener =     No
    Local CC        =     No
    SCS-MP2         =     False
    SCSN-MP2        =     False
    SCS-CCSD        =     False

MP2 correlation energy -0.3317810538086093
                Solving CC Amplitude Equations
                ------------------------------
  Iter             Energy              RMS        T1Diag      D1Diag    New D1Diag    D2Diag
  ----     ---------------------    ---------   ----------  ----------  ----------   --------
     0        -0.331781053808588    0.000e+00    0.000000    0.000000    0.000000    0.167944
     1        -0.489102444471372    3.116e-01    0.004452    0.006777    0.006777    0.252284
     2        -0.642920498791202    1.629e-01    0.011979    0.018841    0.018841    0.339761
     3        -0.639862615701549    1.465e-02    0.013204    0.021122    0.021122    0.339449
     4        -0.643027770325368    4.376e-03    0.013493    0.021692    0.021692    0.341292
     5        -0.643769853622247    8.990e-04    0.013585    0.021896    0.021896    0.341695
     6        -0.643290442328264    5.719e-04    0.013561    0.021860    0.021860    0.341418
     7        -0.643221118040364    7.341e-05    0.013559    0.021858    0.021858    0.341379
     8        -0.643243576554301    4.445e-05    0.013560    0.021861    0.021861    0.341393
     9        -0.643252999066575    1.484e-05    0.013561    0.021862    0.021862    0.341399
    10        -0.643252808273899    7.041e-06    0.013561    0.021862    0.021862    0.341399
    11        -0.643252507421034    4.154e-06    0.013560    0.021861    0.021861    0.341399
    12        -0.643252523183732    1.511e-06    0.013560    0.021861    0.021861    0.341399
    13        -0.643252573453418    7.830e-07    0.013560    0.021861    0.021861    0.341399
    14        -0.643252584347751    2.905e-07    0.013560    0.021861    0.021861    0.341399
    15        -0.643252585373486    1.251e-07    0.013560    0.021861    0.021861    0.341399
    16        -0.643252580215621    6.345e-08    0.013560    0.021861    0.021861    0.341399
    17        -0.643252578913347    2.224e-08    0.013560    0.021861    0.021861    0.341399
    18        -0.643252578011744    5.978e-09    0.013560    0.021861    0.021861    0.341399
    19        -0.643252577703925    2.827e-09    0.013560    0.021861    0.021861    0.341399
    20        -0.643252577708488    1.615e-09    0.013560    0.021861    0.021861    0.341399
    21        -0.643252577762329    9.006e-10    0.013560    0.021861    0.021861    0.341399

    Iterations converged.


    Largest TIA Amplitudes:
              0   7         0.0177745988
              7  84         0.0173569310
              1   8         0.0167266247
              8  85         0.0159630293
              2   9         0.0151275447
              9  86         0.0142553365
              3  10         0.0133550861
             13  91        -0.0130284575
             10  87         0.0124130921
              6  15        -0.0122089742

    Largest TIjAb Amplitudes:
      0   0   0   0        -0.0204529958
      7   7  77  77        -0.0204003875
      1   1   1   1        -0.0200003911
     13  13  27  27        -0.0196649464
     13  13  41  41        -0.0196649464
      8   8  78  78        -0.0194177707
      0  13   0  83         0.0192926763
     13   0  83   0         0.0192926763
      6   6  55  55        -0.0191991715
      6   6  69  69        -0.0191991715

    SCF energy       (wfn)                    = -203.938135579323443
    Reference energy (file100)                = -203.938135579326229

    Opposite-spin MP2 correlation energy      =   -0.327876772840597
    Same-spin MP2 correlation energy          =   -0.003904280967991
    MP2 correlation energy                    =   -0.331781053808609
      * MP2 total energy                      = -204.269916633134841

    Opposite-spin CCSD correlation energy     =   -0.639072769847778
    Same-spin CCSD correlation energy         =   -0.004179811194996
    CCSD correlation energy                   =   -0.643252577762329
      * CCSD total energy                     = -204.581388157088554


*** tstop() called on chemistry.org at Mon Jan  8 19:37:26 2018
Module time:
	user time   =       3.14 seconds =       0.05 minutes
	system time =       1.75 seconds =       0.03 minutes
	total time  =          5 seconds =       0.08 minutes
Total time:
	user time   =      12.46 seconds =       0.21 minutes
	system time =       2.68 seconds =       0.04 minutes
	total time  =         15 seconds =       0.25 minutes

*** tstart() called on chemistry.org
*** at Mon Jan  8 19:37:26 2018

            **************************
            *                        *
            *        CCTRIPLES       *
            *                        *
            **************************


    Wave function   =    CCSD_T
    Reference wfn   =      RHF

    Nuclear Rep. energy (wfn)                =   59.309001020846942
    SCF energy          (wfn)                = -203.938135579323443
    Reference energy    (file100)            = -203.938135579326229
    CCSD energy         (file100)            =   -0.643252577762329
    Total CCSD energy   (file100)            = -204.581388157088554

    Number of ijk index combinations:              560
    Memory available in words        :      3000000000
    ~Words needed per explicit thread:           37044
    Number of threads for explicit ijk threading:    1

    (T) energy                                =   -0.000856533017206
      * CCSD(T) total energy                  = -204.582244690105767


*** tstop() called on chemistry.org at Mon Jan  8 19:37:31 2018
Module time:
	user time   =       4.33 seconds =       0.07 minutes
	system time =       0.89 seconds =       0.01 minutes
	total time  =          5 seconds =       0.08 minutes
Total time:
	user time   =      16.79 seconds =       0.28 minutes
	system time =       3.57 seconds =       0.06 minutes
	total time  =         20 seconds =       0.33 minutes

*** Psi4 exiting successfully. Buy a developer a beer!
