    -----------------------------------------------------------------------
          Psi4: An Open-Source Ab Initio Electronic Structure Package
                              Psi4 1.0.0 Driver

                          Git: Rev {master} 6a9a71b dirty

    J. M. Turney, A. C. Simmonett, R. M. Parrish, E. G. Hohenstein,
    F. A. Evangelista, J. T. Fermann, B. J. Mintz, L. A. Burns, J. J. Wilke,
    M. L. Abrams, N. J. Russ, M. L. Leininger, C. L. Janssen, E. T. Seidl,
    W. D. Allen, H. F. Schaefer, R. A. King, E. F. Valeev, C. D. Sherrill,
    and T. D. Crawford, WIREs Comput. Mol. Sci. 2, 556-565 (2012)
    (doi: 10.1002/wcms.93)

                         Additional Contributions by
    A. E. DePrince, U. Bozkaya, A. Yu. Sokolov, D. G. A. Smith, R. Di Remigio,
    R. M. Richard, J. F. Gonthier, H. R. McAlexander, M. Saitow, and
    B. P. Pritchard
    -----------------------------------------------------------------------


    Psi4 started on: Mon Jan  8 19:43:58 2018

    Process ID:  30357
    PSI4DATADIR: /home/yhliu/psi4conda/share/psi4
    Memory level set to 256.000 MB

  ==> Input File <==

--------------------------------------------------------------------------
memory 24 Gb
molecule beN {
0 1
Be   0.0    0.0 0.0
Be   4.5    0.0 0.0
Be   9.0    0.0 0.0
Be  13.5    0.0 0.0
Be  18.0    0.0 0.0
Be  22.5    0.0 0.0
Be  27.0    0.0 0.0
Be  31.5    0.0 0.0
Be  36.0    0.0 0.0
Be  40.5    0.0 0.0
Be  45.0    0.0 0.0
Be  49.5    0.0 0.0
Be  54.0    0.0 0.0
Be  58.5    0.0 0.0
Be  63.0    0.0 0.0
Be  67.5    0.0 0.0
Be  72.0    0.0 0.0
Be  76.5    0.0 0.0
Be  81.0    0.0 0.0
Be  85.5    0.0 0.0
Be  90.0    0.0 0.0
units angstrom    
}

set basis 6-31g
set freeze_core true
set PRINT_BASIS True
set PUREAM False
set E_CONVERGENCE 1e-10
energy('ccsd(t)')
--------------------------------------------------------------------------
/home/yhliu/psi4conda/lib/python2.7/site-packages/v2rdm_casscf/v2rdm_casscf.so loaded.

  Memory set to  24.000 GiB by Python script.

*** tstart() called on chemistry.org
*** at Mon Jan  8 19:43:58 2018


         ---------------------------------------------------------
                                   SCF
            by Justin Turney, Rob Parrish, and Andy Simmonett
                              RHF Reference
                        1 Threads,  24000 MiB Core
         ---------------------------------------------------------

  ==> Geometry <==

    Molecular point group: d2h
    Full point group: D_inf_h

    Geometry (in Angstrom), charge = 0, multiplicity = 1:

       Center              X                  Y                   Z               Mass       
    ------------   -----------------  -----------------  -----------------  -----------------
          BE        -45.000000000000    -0.000000000000     0.000000000000     9.012182201000
          BE        -40.500000000000    -0.000000000000     0.000000000000     9.012182201000
          BE        -36.000000000000    -0.000000000000     0.000000000000     9.012182201000
          BE        -31.500000000000    -0.000000000000     0.000000000000     9.012182201000
          BE        -27.000000000000    -0.000000000000     0.000000000000     9.012182201000
          BE        -22.500000000000    -0.000000000000     0.000000000000     9.012182201000
          BE        -18.000000000000    -0.000000000000     0.000000000000     9.012182201000
          BE        -13.500000000000    -0.000000000000     0.000000000000     9.012182201000
          BE         -9.000000000000    -0.000000000000     0.000000000000     9.012182201000
          BE         -4.500000000000    -0.000000000000     0.000000000000     9.012182201000
          BE          0.000000000000     0.000000000000     0.000000000000     9.012182201000
          BE          4.500000000000     0.000000000000     0.000000000000     9.012182201000
          BE          9.000000000000     0.000000000000     0.000000000000     9.012182201000
          BE         13.500000000000     0.000000000000     0.000000000000     9.012182201000
          BE         18.000000000000     0.000000000000     0.000000000000     9.012182201000
          BE         22.500000000000     0.000000000000     0.000000000000     9.012182201000
          BE         27.000000000000     0.000000000000     0.000000000000     9.012182201000
          BE         31.500000000000     0.000000000000     0.000000000000     9.012182201000
          BE         36.000000000000     0.000000000000     0.000000000000     9.012182201000
          BE         40.500000000000     0.000000000000     0.000000000000     9.012182201000
          BE         45.000000000000     0.000000000000     0.000000000000     9.012182201000

  Running in d2h symmetry.

  Rotational constants: A = ************  B =      0.00012  C =      0.00012 [cm^-1]
  Rotational constants: A = ************  B =      3.59643  C =      3.59643 [MHz]
  Nuclear repulsion =  104.523143954551401

  Charge       = 0
  Multiplicity = 1
  Electrons    = 84
  Nalpha       = 42
  Nbeta        = 42

  ==> Algorithm <==

  SCF Algorithm Type is PK.
  DIIS enabled.
  MOM disabled.
  Fractional occupation disabled.
  Guess Type is SAD.
  Energy threshold   = 1.00e-10
  Density threshold  = 1.00e-08
  Integral threshold = 0.00e+00

  ==> Primary Basis <==

  Basis Set: 6-31G
    Number of shells: 105
    Number of basis function: 189
    Number of Cartesian functions: 189
    Spherical Harmonics?: false
    Max angular momentum: 1

  -AO BASIS SET INFORMATION:
    Name                   = 6-31G
    Total number of shells = 105
    Number of primitives   = 294
    Number of AO           = 189
    Number of SO           = 189
    Maximum AM             = 1
    Spherical Harmonics    = FALSE

  -Contraction Scheme:
    Atom   Type   All Primitives // Shells:
   ------ ------ --------------------------
       1    BE     10s 4p // 3s 2p 
       2    BE     10s 4p // 3s 2p 
       3    BE     10s 4p // 3s 2p 
       4    BE     10s 4p // 3s 2p 
       5    BE     10s 4p // 3s 2p 
       6    BE     10s 4p // 3s 2p 
       7    BE     10s 4p // 3s 2p 
       8    BE     10s 4p // 3s 2p 
       9    BE     10s 4p // 3s 2p 
      10    BE     10s 4p // 3s 2p 
      11    BE     10s 4p // 3s 2p 
      12    BE     10s 4p // 3s 2p 
      13    BE     10s 4p // 3s 2p 
      14    BE     10s 4p // 3s 2p 
      15    BE     10s 4p // 3s 2p 
      16    BE     10s 4p // 3s 2p 
      17    BE     10s 4p // 3s 2p 
      18    BE     10s 4p // 3s 2p 
      19    BE     10s 4p // 3s 2p 
      20    BE     10s 4p // 3s 2p 
      21    BE     10s 4p // 3s 2p 

  ==> AO Basis Functions <==

    [ 6-31G ]
    cartesian
    ****
   BE   1
    S   6 1.00
                      1264.58570000           0.00194480
                       189.93681000           0.01483510
                        43.15908900           0.07209060
                        12.09866300           0.23715420
                         3.80632320           0.46919870
                         1.27289030           0.35652020
    S   3 1.00
                         3.19646310          -0.11264870
                         0.74781330          -0.22950640
                         0.21996630           1.18691670
    P   3 1.00
                         3.19646310           0.05598020
                         0.74781330           0.26155060
                         0.21996630           0.79397230
    S   1 1.00
                         0.08230990           1.00000000
    P   1 1.00
                         0.08230990           1.00000000
    ****
   BE   2
    S   6 1.00
                      1264.58570000           0.00194480
                       189.93681000           0.01483510
                        43.15908900           0.07209060
                        12.09866300           0.23715420
                         3.80632320           0.46919870
                         1.27289030           0.35652020
    S   3 1.00
                         3.19646310          -0.11264870
                         0.74781330          -0.22950640
                         0.21996630           1.18691670
    P   3 1.00
                         3.19646310           0.05598020
                         0.74781330           0.26155060
                         0.21996630           0.79397230
    S   1 1.00
                         0.08230990           1.00000000
    P   1 1.00
                         0.08230990           1.00000000
    ****
   BE   3
    S   6 1.00
                      1264.58570000           0.00194480
                       189.93681000           0.01483510
                        43.15908900           0.07209060
                        12.09866300           0.23715420
                         3.80632320           0.46919870
                         1.27289030           0.35652020
    S   3 1.00
                         3.19646310          -0.11264870
                         0.74781330          -0.22950640
                         0.21996630           1.18691670
    P   3 1.00
                         3.19646310           0.05598020
                         0.74781330           0.26155060
                         0.21996630           0.79397230
    S   1 1.00
                         0.08230990           1.00000000
    P   1 1.00
                         0.08230990           1.00000000
    ****
   BE   4
    S   6 1.00
                      1264.58570000           0.00194480
                       189.93681000           0.01483510
                        43.15908900           0.07209060
                        12.09866300           0.23715420
                         3.80632320           0.46919870
                         1.27289030           0.35652020
    S   3 1.00
                         3.19646310          -0.11264870
                         0.74781330          -0.22950640
                         0.21996630           1.18691670
    P   3 1.00
                         3.19646310           0.05598020
                         0.74781330           0.26155060
                         0.21996630           0.79397230
    S   1 1.00
                         0.08230990           1.00000000
    P   1 1.00
                         0.08230990           1.00000000
    ****
   BE   5
    S   6 1.00
                      1264.58570000           0.00194480
                       189.93681000           0.01483510
                        43.15908900           0.07209060
                        12.09866300           0.23715420
                         3.80632320           0.46919870
                         1.27289030           0.35652020
    S   3 1.00
                         3.19646310          -0.11264870
                         0.74781330          -0.22950640
                         0.21996630           1.18691670
    P   3 1.00
                         3.19646310           0.05598020
                         0.74781330           0.26155060
                         0.21996630           0.79397230
    S   1 1.00
                         0.08230990           1.00000000
    P   1 1.00
                         0.08230990           1.00000000
    ****
   BE   6
    S   6 1.00
                      1264.58570000           0.00194480
                       189.93681000           0.01483510
                        43.15908900           0.07209060
                        12.09866300           0.23715420
                         3.80632320           0.46919870
                         1.27289030           0.35652020
    S   3 1.00
                         3.19646310          -0.11264870
                         0.74781330          -0.22950640
                         0.21996630           1.18691670
    P   3 1.00
                         3.19646310           0.05598020
                         0.74781330           0.26155060
                         0.21996630           0.79397230
    S   1 1.00
                         0.08230990           1.00000000
    P   1 1.00
                         0.08230990           1.00000000
    ****
   BE   7
    S   6 1.00
                      1264.58570000           0.00194480
                       189.93681000           0.01483510
                        43.15908900           0.07209060
                        12.09866300           0.23715420
                         3.80632320           0.46919870
                         1.27289030           0.35652020
    S   3 1.00
                         3.19646310          -0.11264870
                         0.74781330          -0.22950640
                         0.21996630           1.18691670
    P   3 1.00
                         3.19646310           0.05598020
                         0.74781330           0.26155060
                         0.21996630           0.79397230
    S   1 1.00
                         0.08230990           1.00000000
    P   1 1.00
                         0.08230990           1.00000000
    ****
   BE   8
    S   6 1.00
                      1264.58570000           0.00194480
                       189.93681000           0.01483510
                        43.15908900           0.07209060
                        12.09866300           0.23715420
                         3.80632320           0.46919870
                         1.27289030           0.35652020
    S   3 1.00
                         3.19646310          -0.11264870
                         0.74781330          -0.22950640
                         0.21996630           1.18691670
    P   3 1.00
                         3.19646310           0.05598020
                         0.74781330           0.26155060
                         0.21996630           0.79397230
    S   1 1.00
                         0.08230990           1.00000000
    P   1 1.00
                         0.08230990           1.00000000
    ****
   BE   9
    S   6 1.00
                      1264.58570000           0.00194480
                       189.93681000           0.01483510
                        43.15908900           0.07209060
                        12.09866300           0.23715420
                         3.80632320           0.46919870
                         1.27289030           0.35652020
    S   3 1.00
                         3.19646310          -0.11264870
                         0.74781330          -0.22950640
                         0.21996630           1.18691670
    P   3 1.00
                         3.19646310           0.05598020
                         0.74781330           0.26155060
                         0.21996630           0.79397230
    S   1 1.00
                         0.08230990           1.00000000
    P   1 1.00
                         0.08230990           1.00000000
    ****
   BE  10
    S   6 1.00
                      1264.58570000           0.00194480
                       189.93681000           0.01483510
                        43.15908900           0.07209060
                        12.09866300           0.23715420
                         3.80632320           0.46919870
                         1.27289030           0.35652020
    S   3 1.00
                         3.19646310          -0.11264870
                         0.74781330          -0.22950640
                         0.21996630           1.18691670
    P   3 1.00
                         3.19646310           0.05598020
                         0.74781330           0.26155060
                         0.21996630           0.79397230
    S   1 1.00
                         0.08230990           1.00000000
    P   1 1.00
                         0.08230990           1.00000000
    ****
   BE  11
    S   6 1.00
                      1264.58570000           0.00194480
                       189.93681000           0.01483510
                        43.15908900           0.07209060
                        12.09866300           0.23715420
                         3.80632320           0.46919870
                         1.27289030           0.35652020
    S   3 1.00
                         3.19646310          -0.11264870
                         0.74781330          -0.22950640
                         0.21996630           1.18691670
    P   3 1.00
                         3.19646310           0.05598020
                         0.74781330           0.26155060
                         0.21996630           0.79397230
    S   1 1.00
                         0.08230990           1.00000000
    P   1 1.00
                         0.08230990           1.00000000
    ****

  ==> Pre-Iterations <==

   -------------------------------------------------------
    Irrep   Nso     Nmo     Nalpha   Nbeta   Ndocc  Nsocc
   -------------------------------------------------------
     Ag        53      53       0       0       0       0
     B1g       20      20       0       0       0       0
     B2g       20      20       0       0       0       0
     B3g        0       0       0       0       0       0
     Au         0       0       0       0       0       0
     B1u       22      22       0       0       0       0
     B2u       22      22       0       0       0       0
     B3u       52      52       0       0       0       0
   -------------------------------------------------------
    Total     189     189      42      42      42       0
   -------------------------------------------------------

  ==> Integral Setup <==

  Using in-core PK algorithm.
   Calculation information:
      Number of atoms:                  21
      Number of AO shells:             105
      Number of primitives:            294
      Number of atomic orbitals:       189
      Number of basis functions:       189

      Integral cutoff                 1.00e-12
      Number of threads:                 1

  Performing in-core PK
  Using 322399980 doubles for integral storage.
  We computed 550252 shell quartets total.
  Whereas there are 15487395 unique shell quartets.
  ==> DiskJK: Disk-Based J/K Matrices <==

    J tasked:                  Yes
    K tasked:                  Yes
    wK tasked:                  No
    Memory (MB):             17166
    Schwarz Cutoff:          1E-12

    OpenMP threads:              1
  Minimum eigenvalue in the overlap matrix is 1.0041943289E-01.
  Using Symmetric Orthogonalization.
  SCF Guess: Superposition of Atomic Densities via on-the-fly atomic UHF.

  ==> Iterations <==

                        Total Energy        Delta E     RMS |[F,P]|

   @RHF iter   0:  -305.92012637837217   -3.05920e+02   8.75099e-04 
   @RHF iter   1:  -305.90634925442282    1.37771e-02   1.94316e-04 
   @RHF iter   2:  -305.90721480669561   -8.65552e-04   6.41773e-05 DIIS
   @RHF iter   3:  -305.90732799216755   -1.13185e-04   3.19368e-06 DIIS
   @RHF iter   4:  -305.90732819378763   -2.01620e-07   1.43116e-07 DIIS
   @RHF iter   5:  -305.90732819406765   -2.80011e-10   2.71588e-08 DIIS
   @RHF iter   6:  -305.90732819407941   -1.17666e-11   3.32237e-09 DIIS

  ==> Post-Iterations <==

    Orbital Energies (a.u.)
    -----------------------

    Doubly Occupied:                                                      

       1Ag    -4.708045     1B3u   -4.708045     2Ag    -4.707928  
       2B3u   -4.707928     3Ag    -4.707887     3B3u   -4.707887  
       4B3u   -4.707871     4Ag    -4.707871     5Ag    -4.707864  
       5B3u   -4.707864     6Ag    -4.707860     6B3u   -4.707860  
       7Ag    -4.707858     7B3u   -4.707858     8Ag    -4.707857  
       8B3u   -4.707856     9Ag    -4.707855     9B3u   -4.707854  
      10Ag    -4.707853    11Ag    -4.707374    10B3u   -4.707374  
      12Ag    -0.317429    11B3u   -0.317026    13Ag    -0.316342  
      12B3u   -0.315381    14Ag    -0.314154    13B3u   -0.312673  
      15Ag    -0.310956    14B3u   -0.309024    16Ag    -0.306905  
      15B3u   -0.304628    17Ag    -0.302232    16B3u   -0.299759  
      18Ag    -0.297255    17B3u   -0.294774    19Ag    -0.292373  
      18B3u   -0.290112    20Ag    -0.288054    19B3u   -0.286259  
      21Ag    -0.284785    20B3u   -0.283682    22Ag    -0.282993  

    Virtual:                                                              

      21B3u    0.037845    23Ag     0.039311    22B3u    0.041749  
      24Ag     0.045124    23B3u    0.049389    25Ag     0.054484  
      24B3u    0.060344    26Ag     0.066900     1B2u    0.068204  
       1B1u    0.068204     1B2g    0.068595     1B1g    0.068595  
       2B1u    0.069258     2B2u    0.069258     2B1g    0.070183  
       2B2g    0.070183     3B1u    0.071357     3B2u    0.071357  
       3B2g    0.072762     3B1g    0.072762    25B3u    0.074076  
       4B1u    0.074374     4B2u    0.074374     4B2g    0.076166  
       4B1g    0.076166     5B1u    0.078108     5B2u    0.078108  
       5B2g    0.080163     5B1g    0.080163    27Ag     0.081792  
       6B1u    0.082292     6B2u    0.082292     6B2g    0.084453  
       6B1g    0.084453     7B2u    0.086602     7B1u    0.086602  
       7B2g    0.088690     7B1g    0.088690    26B3u    0.089958  
       8B1u    0.090672     8B2u    0.090672     8B1g    0.092503  
       8B2g    0.092503     9B1u    0.094139     9B2u    0.094139  
       9B2g    0.095542     9B1g    0.095542    10B1u    0.096678  
      10B2u    0.096678    10B2g    0.097518    10B1g    0.097518  
      11B2u    0.098040    11B1u    0.098040    28Ag     0.098470  
      27B3u    0.107204    29Ag     0.116008    28B3u    0.124696  
      30Ag     0.133044    29B3u    0.140797    31Ag     0.147675  
      30B3u    0.153397    32Ag     0.157705    31B3u    0.160390  
      33Ag     0.395967    32B3u    0.396706    34Ag     0.397952  
      33B3u    0.399706    35Ag     0.401956    34B3u    0.404679  
      36Ag     0.407842    35B3u    0.411400    37Ag     0.415304  
      36B3u    0.419496    38Ag     0.423919    37B3u    0.428511  
      39Ag     0.433210    38B3u    0.437948    40Ag     0.442652  
      12B1u    0.442707    12B2u    0.442707    11B2g    0.443237  
      11B1g    0.443237    13B1u    0.444138    13B2u    0.444138  
      12B2g    0.445412    12B1g    0.445412    14B2u    0.447062  
      14B1u    0.447062    39B3u    0.447233    13B2g    0.449084  
      13B1g    0.449084    15B1u    0.451473    15B2u    0.451473  
      41Ag     0.451586    14B2g    0.454220    14B1g    0.454220  
      40B3u    0.455572    16B1u    0.457309    16B2u    0.457309  
      42Ag     0.459015    15B2g    0.460711    15B1g    0.460711  
      41B3u    0.461676    43Ag     0.464269    42B3u    0.464371  
      17B1u    0.464389    17B2u    0.464389    16B2g    0.468290  
      16B1g    0.468290    18B1u    0.472343    18B2u    0.472343  
      17B2g    0.476463    17B1g    0.476463    19B2u    0.480544  
      19B1u    0.480544    18B2g    0.484468    18B1g    0.484468  
      20B1u    0.488105    20B2u    0.488105    19B2g    0.491323  
      19B1g    0.491323    21B2u    0.493994    21B1u    0.493994  
      20B2g    0.496002    20B1g    0.496002    22B2u    0.497255  
      22B1u    0.497255    44Ag     0.523718    43B3u    0.525532  
      45Ag     0.528384    44B3u    0.532087    46Ag     0.536482  
      45B3u    0.541466    47Ag     0.546987    46B3u    0.553041  
      48Ag     0.559656    47B3u    0.566890    49Ag     0.574812  
      48B3u    0.583487    50Ag     0.592951    49B3u    0.603172  
      51Ag     0.614005    50B3u    0.625136    52Ag     0.636035  
      51B3u    0.645958    53Ag     0.654008    52B3u    0.659295  

    Final Occupation by Irrep:
             Ag   B1g   B2g   B3g    Au   B1u   B2u   B3u 
    DOCC [    22,    0,    0,    0,    0,    0,    0,   20 ]

  Energy converged.

  @RHF Final Energy:  -305.90732819407941

   => Energetics <=

    Nuclear Repulsion Energy =            104.5231439545514007
    One-Electron Energy =                -610.4780514790897996
    Two-Electron Energy =                 200.0475793304589729
    DFT Exchange-Correlation Energy =       0.0000000000000000
    Empirical Dispersion Energy =           0.0000000000000000
    PCM Polarization Energy =               0.0000000000000000
    EFP Energy =                            0.0000000000000000
    Total Energy =                       -305.9073281940794118


  Saving occupied orbitals to File 180.

*** tstop() called on chemistry.org at Mon Jan  8 19:44:04 2018
Module time:
	user time   =       4.94 seconds =       0.08 minutes
	system time =       0.56 seconds =       0.01 minutes
	total time  =          6 seconds =       0.10 minutes
Total time:
	user time   =       4.94 seconds =       0.08 minutes
	system time =       0.56 seconds =       0.01 minutes
	total time  =          6 seconds =       0.10 minutes


Properties will be evaluated at   0.000000,   0.000000,   0.000000 Bohr

Properties computed using the SCF density matrix

  Nuclear Dipole Moment: (a.u.)
     X:    -0.0000      Y:     0.0000      Z:     0.0000

  Electronic Dipole Moment: (a.u.)
     X:     0.0000      Y:     0.0000      Z:     0.0000

  Dipole Moment: (a.u.)
     X:    -0.0000      Y:     0.0000      Z:     0.0000     Total:     0.0000

  Dipole Moment: (Debye)
     X:    -0.0000      Y:     0.0000      Z:     0.0000     Total:     0.0000

 MINTS: Wrapper to libmints.
   by Justin Turney

   Calculation information:
      Number of atoms:                  21
      Number of AO shells:             105
      Number of SO shells:              55
      Number of primitives:            294
      Number of atomic orbitals:       189
      Number of basis functions:       189

      Number of irreps:                  8
      Integral cutoff                 0.00e+00
      Number of functions per irrep: [  53   20   20    0    0   22   22   52 ]

 OEINTS: Overlap, kinetic, potential, dipole, and quadrupole integrals
         stored in file 35.

      Computing two-electron integrals...done
      Computed 22758728 non-zero two-electron integrals.
        Stored in file 33.


*** tstart() called on chemistry.org
*** at Mon Jan  8 19:44:35 2018


	Wfn Parameters:
	--------------------
	Wavefunction         = CCSD_T
	Number of irreps     = 8
	Number of MOs        = 189
	Number of active MOs = 168
	AO-Basis             = NONE
	Semicanonical        = false
	Reference            = RHF
	Print Level          = 1

	IRREP	# MOs	# FZDC	# DOCC	# SOCC	# VIRT	# FZVR
	-----	-----	------	------	------	------	------
	 Ag	   53	    11	    11	    0	    31	    0
	 B1g	   20	    0	    0	    0	    20	    0
	 B2g	   20	    0	    0	    0	    20	    0
	 B3g	   0	    0	    0	    0	    0	    0
	 Au	   0	    0	    0	    0	    0	    0
	 B1u	   22	    0	    0	    0	    22	    0
	 B2u	   22	    0	    0	    0	    22	    0
	 B3u	   52	    10	    10	    0	    32	    0
	Transforming integrals...
	IWL integrals will be deleted.
	(OO|OO)...
	Presorting SO-basis two-electron integrals.
	Sorting File: SO Ints (nn|nn) nbuckets = 1
	Transforming the one-electron integrals and constructing Fock matrices
	Starting first half-transformation.
	Sorting half-transformed integrals.
	First half integral transformation complete.
	Starting second half-transformation.
	Two-electron integral transformation complete.
	(OO|OV)...
	Starting second half-transformation.
	Two-electron integral transformation complete.
	(OO|VV)...
	Starting second half-transformation.
	Two-electron integral transformation complete.
	(OV|OO)...
	Starting first half-transformation.
	Sorting half-transformed integrals.
	First half integral transformation complete.
	Starting second half-transformation.
	Two-electron integral transformation complete.
	(OV|OV)...
	Starting second half-transformation.
	Two-electron integral transformation complete.
	(OV|VV)...
	Starting second half-transformation.
	Two-electron integral transformation complete.
	(VV|OO)...
	Starting first half-transformation.
	Sorting half-transformed integrals.
	First half integral transformation complete.
	Starting second half-transformation.
	Two-electron integral transformation complete.
	(VV|OV)...
	Starting second half-transformation.
	Two-electron integral transformation complete.
	(VV|VV)...
	Starting second half-transformation.
	Two-electron integral transformation complete.
	Frozen core energy     =   -364.19614490818617

	Size of irrep 0 of <ab|cd> integrals:     14.085 (MW) /    112.680 (MB)
	Size of irrep 1 of <ab|cd> integrals:      7.012 (MW) /     56.095 (MB)
	Size of irrep 2 of <ab|cd> integrals:      7.012 (MW) /     56.095 (MB)
	Size of irrep 3 of <ab|cd> integrals:      3.126 (MW) /     25.007 (MB)
	Size of irrep 4 of <ab|cd> integrals:      3.098 (MW) /     24.781 (MB)
	Size of irrep 5 of <ab|cd> integrals:      6.991 (MW) /     55.926 (MB)
	Size of irrep 6 of <ab|cd> integrals:      6.991 (MW) /     55.926 (MB)
	Size of irrep 7 of <ab|cd> integrals:     14.018 (MW) /    112.140 (MB)
	Total:                                    62.331 (MW) /    498.650 (MB)

	Size of irrep 0 of <ia|bc> integrals:      2.481 (MW) /     19.846 (MB)
	Size of irrep 1 of <ia|bc> integrals:      1.165 (MW) /      9.321 (MB)
	Size of irrep 2 of <ia|bc> integrals:      1.165 (MW) /      9.321 (MB)
	Size of irrep 3 of <ia|bc> integrals:      0.000 (MW) /      0.000 (MB)
	Size of irrep 4 of <ia|bc> integrals:      0.000 (MW) /      0.000 (MB)
	Size of irrep 5 of <ia|bc> integrals:      1.169 (MW) /      9.349 (MB)
	Size of irrep 6 of <ia|bc> integrals:      1.169 (MW) /      9.349 (MB)
	Size of irrep 7 of <ia|bc> integrals:      2.479 (MW) /     19.828 (MB)
	Total:                                     9.627 (MW) /     77.014 (MB)

	Size of irrep 0 of tijab amplitudes:       0.829 (MW) /      6.635 (MB)
	Size of irrep 1 of tijab amplitudes:       0.000 (MW) /      0.000 (MB)
	Size of irrep 2 of tijab amplitudes:       0.000 (MW) /      0.000 (MB)
	Size of irrep 3 of tijab amplitudes:       0.000 (MW) /      0.000 (MB)
	Size of irrep 4 of tijab amplitudes:       0.000 (MW) /      0.000 (MB)
	Size of irrep 5 of tijab amplitudes:       0.000 (MW) /      0.000 (MB)
	Size of irrep 6 of tijab amplitudes:       0.000 (MW) /      0.000 (MB)
	Size of irrep 7 of tijab amplitudes:       0.824 (MW) /      6.589 (MB)
	Total:                                     1.653 (MW) /     13.225 (MB)

	Nuclear Rep. energy          =    104.52314395455140
	SCF energy                   =   -305.90732819407941
	One-electron energy          =    -79.81506351974706
	Two-electron energy          =     33.58073627929704
	Reference energy             =   -305.90732819408476

*** tstop() called on chemistry.org at Mon Jan  8 19:44:47 2018
Module time:
	user time   =       7.59 seconds =       0.13 minutes
	system time =       4.20 seconds =       0.07 minutes
	total time  =         12 seconds =       0.20 minutes
Total time:
	user time   =      43.52 seconds =       0.73 minutes
	system time =       5.11 seconds =       0.09 minutes
	total time  =         49 seconds =       0.82 minutes

*** tstart() called on chemistry.org
*** at Mon Jan  8 19:44:47 2018

            **************************
            *                        *
            *        CCENERGY        *
            *                        *
            **************************

    Nuclear Rep. energy (wfn)     =  104.523143954551401
    SCF energy          (wfn)     = -305.907328194079412
    Reference energy    (file100) = -305.907328194084755

    Input parameters:
    -----------------
    Wave function   =     CCSD_T
    Reference wfn   =     RHF
    Brueckner       =     No
    Memory (Mbytes) =     24000.0
    Maxiter         =     50
    R_Convergence   =     1.0e-07
    E_Convergence   =     1.0e-10
    Restart         =     Yes
    DIIS            =     Yes
    AO Basis        =     NONE
    ABCD            =     NEW
    Cache Level     =     2
    Cache Type      =     LOW
    Print Level     =     1
    Num. of threads =     1
    # Amps to Print =     10
    Print MP2 Amps? =     No
    Analyze T2 Amps =     No
    Print Pair Ener =     No
    Local CC        =     No
    SCS-MP2         =     False
    SCSN-MP2        =     False
    SCS-CCSD        =     False

MP2 correlation energy -0.4979256542046975
                Solving CC Amplitude Equations
                ------------------------------
  Iter             Energy              RMS        T1Diag      D1Diag    New D1Diag    D2Diag
  ----     ---------------------    ---------   ----------  ----------  ----------   --------
     0        -0.497925654204666    0.000e+00    0.000000    0.000000    0.000000    0.168038
     1        -0.733865881007202    3.815e-01    0.004448    0.006787    0.006787    0.252417
     2        -0.964290754605730    1.994e-01    0.011986    0.018901    0.018901    0.339875
     3        -0.959779582332391    1.807e-02    0.013233    0.021221    0.021221    0.339598
     4        -0.964536971655894    5.393e-03    0.013527    0.021798    0.021798    0.341443
     5        -0.965654225410514    1.113e-03    0.013621    0.022005    0.022005    0.341844
     6        -0.964937417297628    7.017e-04    0.013597    0.021968    0.021968    0.341566
     7        -0.964831527792624    9.108e-05    0.013595    0.021966    0.021966    0.341526
     8        -0.964863573397033    5.311e-05    0.013597    0.021969    0.021969    0.341539
     9        -0.964877621224353    1.820e-05    0.013597    0.021970    0.021970    0.341545
    10        -0.964877335055094    8.695e-06    0.013597    0.021970    0.021970    0.341545
    11        -0.964876877705911    5.097e-06    0.013597    0.021969    0.021969    0.341545
    12        -0.964876897543308    1.858e-06    0.013597    0.021969    0.021969    0.341545
    13        -0.964876973091826    9.662e-07    0.013597    0.021969    0.021969    0.341545
    14        -0.964876989813465    3.598e-07    0.013597    0.021969    0.021969    0.341545
    15        -0.964876991536550    1.537e-07    0.013597    0.021969    0.021969    0.341545
    16        -0.964876983576962    7.756e-08    0.013597    0.021969    0.021969    0.341545
    17        -0.964876981694929    2.725e-08    0.013597    0.021969    0.021969    0.341545
    18        -0.964876980304627    7.349e-09    0.013597    0.021969    0.021969    0.341545
    19        -0.964876979816904    3.483e-09    0.013597    0.021969    0.021969    0.341545
    20        -0.964876979811219    2.006e-09    0.013597    0.021969    0.021969    0.341545
    21        -0.964876979891596    1.120e-09    0.013597    0.021969    0.021969    0.341545

    Iterations converged.


    Largest TIA Amplitudes:
              0  10        -0.0178530033
             11 126         0.0176386187
              1  11         0.0172999966
             12 127         0.0168642239
              2  12         0.0163570386
             13 128         0.0158014607
              3  13         0.0152157243
             14 129         0.0146121931
              4  14         0.0139972554
             15 130         0.0133718146

    Largest TIjAb Amplitudes:
      5   5  76  76        -0.0155293209
      5   5  98  98        -0.0155293209
      5   5 120 120        -0.0147810642
     11  11   0   0        -0.0140240863
      0   0 115 115        -0.0139679804
      1   1 116 116        -0.0139224567
     12  12   1   1        -0.0137334866
     10  10  81  81        -0.0134978891
     10  10 103 103        -0.0134978891
      2   2 117 117        -0.0134832778

    SCF energy       (wfn)                    = -305.907328194079412
    Reference energy (file100)                = -305.907328194084755

    Opposite-spin MP2 correlation energy      =   -0.491909218872522
    Same-spin MP2 correlation energy          =   -0.006016435332144
    MP2 correlation energy                    =   -0.497925654204698
      * MP2 total energy                      = -306.405253848289476

    Opposite-spin CCSD correlation energy     =   -0.958434991372213
    Same-spin CCSD correlation energy         =   -0.006441993158139
    CCSD correlation energy                   =   -0.964876979891596
      * CCSD total energy                     = -306.872205173976340


*** tstop() called on chemistry.org at Mon Jan  8 19:45:43 2018
Module time:
	user time   =      22.84 seconds =       0.38 minutes
	system time =       9.89 seconds =       0.16 minutes
	total time  =         56 seconds =       0.93 minutes
Total time:
	user time   =      66.36 seconds =       1.11 minutes
	system time =      15.00 seconds =       0.25 minutes
	total time  =        105 seconds =       1.75 minutes

*** tstart() called on chemistry.org
*** at Mon Jan  8 19:45:43 2018

            **************************
            *                        *
            *        CCTRIPLES       *
            *                        *
            **************************


    Wave function   =    CCSD_T
    Reference wfn   =      RHF

    Nuclear Rep. energy (wfn)                =  104.523143954551401
    SCF energy          (wfn)                = -305.907328194079412
    Reference energy    (file100)            = -305.907328194084755
    CCSD energy         (file100)            =   -0.964876979891596
    Total CCSD energy   (file100)            = -306.872205173976340

    Number of ijk index combinations:             1771
    Memory available in words        :      3000000000
    ~Words needed per explicit thread:          131072
    Number of threads for explicit ijk threading:    1

    (T) energy                                =   -0.001320807361365
      * CCSD(T) total energy                  = -306.873525981337707


*** tstop() called on chemistry.org at Mon Jan  8 19:46:51 2018
Module time:
	user time   =      52.36 seconds =       0.87 minutes
	system time =      15.96 seconds =       0.27 minutes
	total time  =         68 seconds =       1.13 minutes
Total time:
	user time   =     118.72 seconds =       1.98 minutes
	system time =      30.96 seconds =       0.52 minutes
	total time  =        173 seconds =       2.88 minutes

*** Psi4 exiting successfully. Buy a developer a beer!
