    -----------------------------------------------------------------------
          Psi4: An Open-Source Ab Initio Electronic Structure Package
                              Psi4 1.0.0 Driver

                          Git: Rev {master} 6a9a71b dirty

    J. M. Turney, A. C. Simmonett, R. M. Parrish, E. G. Hohenstein,
    F. A. Evangelista, J. T. Fermann, B. J. Mintz, L. A. Burns, J. J. Wilke,
    M. L. Abrams, N. J. Russ, M. L. Leininger, C. L. Janssen, E. T. Seidl,
    W. D. Allen, H. F. Schaefer, R. A. King, E. F. Valeev, C. D. Sherrill,
    and T. D. Crawford, WIREs Comput. Mol. Sci. 2, 556-565 (2012)
    (doi: 10.1002/wcms.93)

                         Additional Contributions by
    A. E. DePrince, U. Bozkaya, A. Yu. Sokolov, D. G. A. Smith, R. Di Remigio,
    R. M. Richard, J. F. Gonthier, H. R. McAlexander, M. Saitow, and
    B. P. Pritchard
    -----------------------------------------------------------------------


    Psi4 started on: Mon Jan  8 20:44:13 2018

    Process ID:  35405
    PSI4DATADIR: /home/yhliu/psi4conda/share/psi4
    Memory level set to 256.000 MB

  ==> Input File <==

--------------------------------------------------------------------------
memory 24 Gb
molecule beN {
0 1
Be   0.0    0.0 0.0
Be   4.5    0.0 0.0
Be   9.0    0.0 0.0
Be  13.5    0.0 0.0
Be  18.0    0.0 0.0
Be  22.5    0.0 0.0
Be  27.0    0.0 0.0
Be  31.5    0.0 0.0
Be  36.0    0.0 0.0
Be  40.5    0.0 0.0
Be  45.0    0.0 0.0
Be  49.5    0.0 0.0
Be  54.0    0.0 0.0
Be  58.5    0.0 0.0
Be  63.0    0.0 0.0
Be  67.5    0.0 0.0
Be  72.0    0.0 0.0
Be  76.5    0.0 0.0
Be  81.0    0.0 0.0
Be  85.5    0.0 0.0
Be  90.0    0.0 0.0
Be  94.5    0.0 0.0
Be  99.0    0.0 0.0
Be 103.5    0.0 0.0
Be 108.0    0.0 0.0
Be 112.5    0.0 0.0
Be 117.0    0.0 0.0
Be 121.5    0.0 0.0
Be 126.0    0.0 0.0
units angstrom    
}

set basis 6-31g
set freeze_core true
set PRINT_BASIS True
set PUREAM False
set E_CONVERGENCE 1e-10
energy('ccsd(t)')
--------------------------------------------------------------------------
/home/yhliu/psi4conda/lib/python2.7/site-packages/v2rdm_casscf/v2rdm_casscf.so loaded.

  Memory set to  24.000 GiB by Python script.

*** tstart() called on chemistry.org
*** at Mon Jan  8 20:44:13 2018


         ---------------------------------------------------------
                                   SCF
            by Justin Turney, Rob Parrish, and Andy Simmonett
                              RHF Reference
                        1 Threads,  24000 MiB Core
         ---------------------------------------------------------

  ==> Geometry <==

    Molecular point group: d2h
    Full point group: D_inf_h

    Geometry (in Angstrom), charge = 0, multiplicity = 1:

       Center              X                  Y                   Z               Mass       
    ------------   -----------------  -----------------  -----------------  -----------------
          BE        -63.000000000000    -0.000000000000     0.000000000000     9.012182201000
          BE        -58.500000000000    -0.000000000000     0.000000000000     9.012182201000
          BE        -54.000000000000    -0.000000000000     0.000000000000     9.012182201000
          BE        -49.500000000000    -0.000000000000     0.000000000000     9.012182201000
          BE        -45.000000000000    -0.000000000000     0.000000000000     9.012182201000
          BE        -40.500000000000    -0.000000000000     0.000000000000     9.012182201000
          BE        -36.000000000000    -0.000000000000     0.000000000000     9.012182201000
          BE        -31.500000000000    -0.000000000000     0.000000000000     9.012182201000
          BE        -27.000000000000    -0.000000000000     0.000000000000     9.012182201000
          BE        -22.500000000000    -0.000000000000     0.000000000000     9.012182201000
          BE        -18.000000000000    -0.000000000000     0.000000000000     9.012182201000
          BE        -13.500000000000    -0.000000000000     0.000000000000     9.012182201000
          BE         -9.000000000000    -0.000000000000     0.000000000000     9.012182201000
          BE         -4.500000000000    -0.000000000000     0.000000000000     9.012182201000
          BE          0.000000000000     0.000000000000     0.000000000000     9.012182201000
          BE          4.500000000000     0.000000000000     0.000000000000     9.012182201000
          BE          9.000000000000     0.000000000000     0.000000000000     9.012182201000
          BE         13.500000000000     0.000000000000     0.000000000000     9.012182201000
          BE         18.000000000000     0.000000000000     0.000000000000     9.012182201000
          BE         22.500000000000     0.000000000000     0.000000000000     9.012182201000
          BE         27.000000000000     0.000000000000     0.000000000000     9.012182201000
          BE         31.500000000000     0.000000000000     0.000000000000     9.012182201000
          BE         36.000000000000     0.000000000000     0.000000000000     9.012182201000
          BE         40.500000000000     0.000000000000     0.000000000000     9.012182201000
          BE         45.000000000000     0.000000000000     0.000000000000     9.012182201000
          BE         49.500000000000     0.000000000000     0.000000000000     9.012182201000
          BE         54.000000000000     0.000000000000     0.000000000000     9.012182201000
          BE         58.500000000000     0.000000000000     0.000000000000     9.012182201000
          BE         63.000000000000     0.000000000000     0.000000000000     9.012182201000

  Running in d2h symmetry.

  Rotational constants: A = ************  B =      0.00005  C =      0.00005 [cm^-1]
  Rotational constants: A = ************  B =      1.36416  C =      1.36416 [MHz]
  Nuclear repulsion =  161.599825753229226

  Charge       = 0
  Multiplicity = 1
  Electrons    = 116
  Nalpha       = 58
  Nbeta        = 58

  ==> Algorithm <==

  SCF Algorithm Type is PK.
  DIIS enabled.
  MOM disabled.
  Fractional occupation disabled.
  Guess Type is SAD.
  Energy threshold   = 1.00e-10
  Density threshold  = 1.00e-08
  Integral threshold = 0.00e+00

  ==> Primary Basis <==

  Basis Set: 6-31G
    Number of shells: 145
    Number of basis function: 261
    Number of Cartesian functions: 261
    Spherical Harmonics?: false
    Max angular momentum: 1

  -AO BASIS SET INFORMATION:
    Name                   = 6-31G
    Total number of shells = 145
    Number of primitives   = 406
    Number of AO           = 261
    Number of SO           = 261
    Maximum AM             = 1
    Spherical Harmonics    = FALSE

  -Contraction Scheme:
    Atom   Type   All Primitives // Shells:
   ------ ------ --------------------------
       1    BE     10s 4p // 3s 2p 
       2    BE     10s 4p // 3s 2p 
       3    BE     10s 4p // 3s 2p 
       4    BE     10s 4p // 3s 2p 
       5    BE     10s 4p // 3s 2p 
       6    BE     10s 4p // 3s 2p 
       7    BE     10s 4p // 3s 2p 
       8    BE     10s 4p // 3s 2p 
       9    BE     10s 4p // 3s 2p 
      10    BE     10s 4p // 3s 2p 
      11    BE     10s 4p // 3s 2p 
      12    BE     10s 4p // 3s 2p 
      13    BE     10s 4p // 3s 2p 
      14    BE     10s 4p // 3s 2p 
      15    BE     10s 4p // 3s 2p 
      16    BE     10s 4p // 3s 2p 
      17    BE     10s 4p // 3s 2p 
      18    BE     10s 4p // 3s 2p 
      19    BE     10s 4p // 3s 2p 
      20    BE     10s 4p // 3s 2p 
      21    BE     10s 4p // 3s 2p 
      22    BE     10s 4p // 3s 2p 
      23    BE     10s 4p // 3s 2p 
      24    BE     10s 4p // 3s 2p 
      25    BE     10s 4p // 3s 2p 
      26    BE     10s 4p // 3s 2p 
      27    BE     10s 4p // 3s 2p 
      28    BE     10s 4p // 3s 2p 
      29    BE     10s 4p // 3s 2p 

  ==> AO Basis Functions <==

    [ 6-31G ]
    cartesian
    ****
   BE   1
    S   6 1.00
                      1264.58570000           0.00194480
                       189.93681000           0.01483510
                        43.15908900           0.07209060
                        12.09866300           0.23715420
                         3.80632320           0.46919870
                         1.27289030           0.35652020
    S   3 1.00
                         3.19646310          -0.11264870
                         0.74781330          -0.22950640
                         0.21996630           1.18691670
    P   3 1.00
                         3.19646310           0.05598020
                         0.74781330           0.26155060
                         0.21996630           0.79397230
    S   1 1.00
                         0.08230990           1.00000000
    P   1 1.00
                         0.08230990           1.00000000
    ****
   BE   2
    S   6 1.00
                      1264.58570000           0.00194480
                       189.93681000           0.01483510
                        43.15908900           0.07209060
                        12.09866300           0.23715420
                         3.80632320           0.46919870
                         1.27289030           0.35652020
    S   3 1.00
                         3.19646310          -0.11264870
                         0.74781330          -0.22950640
                         0.21996630           1.18691670
    P   3 1.00
                         3.19646310           0.05598020
                         0.74781330           0.26155060
                         0.21996630           0.79397230
    S   1 1.00
                         0.08230990           1.00000000
    P   1 1.00
                         0.08230990           1.00000000
    ****
   BE   3
    S   6 1.00
                      1264.58570000           0.00194480
                       189.93681000           0.01483510
                        43.15908900           0.07209060
                        12.09866300           0.23715420
                         3.80632320           0.46919870
                         1.27289030           0.35652020
    S   3 1.00
                         3.19646310          -0.11264870
                         0.74781330          -0.22950640
                         0.21996630           1.18691670
    P   3 1.00
                         3.19646310           0.05598020
                         0.74781330           0.26155060
                         0.21996630           0.79397230
    S   1 1.00
                         0.08230990           1.00000000
    P   1 1.00
                         0.08230990           1.00000000
    ****
   BE   4
    S   6 1.00
                      1264.58570000           0.00194480
                       189.93681000           0.01483510
                        43.15908900           0.07209060
                        12.09866300           0.23715420
                         3.80632320           0.46919870
                         1.27289030           0.35652020
    S   3 1.00
                         3.19646310          -0.11264870
                         0.74781330          -0.22950640
                         0.21996630           1.18691670
    P   3 1.00
                         3.19646310           0.05598020
                         0.74781330           0.26155060
                         0.21996630           0.79397230
    S   1 1.00
                         0.08230990           1.00000000
    P   1 1.00
                         0.08230990           1.00000000
    ****
   BE   5
    S   6 1.00
                      1264.58570000           0.00194480
                       189.93681000           0.01483510
                        43.15908900           0.07209060
                        12.09866300           0.23715420
                         3.80632320           0.46919870
                         1.27289030           0.35652020
    S   3 1.00
                         3.19646310          -0.11264870
                         0.74781330          -0.22950640
                         0.21996630           1.18691670
    P   3 1.00
                         3.19646310           0.05598020
                         0.74781330           0.26155060
                         0.21996630           0.79397230
    S   1 1.00
                         0.08230990           1.00000000
    P   1 1.00
                         0.08230990           1.00000000
    ****
   BE   6
    S   6 1.00
                      1264.58570000           0.00194480
                       189.93681000           0.01483510
                        43.15908900           0.07209060
                        12.09866300           0.23715420
                         3.80632320           0.46919870
                         1.27289030           0.35652020
    S   3 1.00
                         3.19646310          -0.11264870
                         0.74781330          -0.22950640
                         0.21996630           1.18691670
    P   3 1.00
                         3.19646310           0.05598020
                         0.74781330           0.26155060
                         0.21996630           0.79397230
    S   1 1.00
                         0.08230990           1.00000000
    P   1 1.00
                         0.08230990           1.00000000
    ****
   BE   7
    S   6 1.00
                      1264.58570000           0.00194480
                       189.93681000           0.01483510
                        43.15908900           0.07209060
                        12.09866300           0.23715420
                         3.80632320           0.46919870
                         1.27289030           0.35652020
    S   3 1.00
                         3.19646310          -0.11264870
                         0.74781330          -0.22950640
                         0.21996630           1.18691670
    P   3 1.00
                         3.19646310           0.05598020
                         0.74781330           0.26155060
                         0.21996630           0.79397230
    S   1 1.00
                         0.08230990           1.00000000
    P   1 1.00
                         0.08230990           1.00000000
    ****
   BE   8
    S   6 1.00
                      1264.58570000           0.00194480
                       189.93681000           0.01483510
                        43.15908900           0.07209060
                        12.09866300           0.23715420
                         3.80632320           0.46919870
                         1.27289030           0.35652020
    S   3 1.00
                         3.19646310          -0.11264870
                         0.74781330          -0.22950640
                         0.21996630           1.18691670
    P   3 1.00
                         3.19646310           0.05598020
                         0.74781330           0.26155060
                         0.21996630           0.79397230
    S   1 1.00
                         0.08230990           1.00000000
    P   1 1.00
                         0.08230990           1.00000000
    ****
   BE   9
    S   6 1.00
                      1264.58570000           0.00194480
                       189.93681000           0.01483510
                        43.15908900           0.07209060
                        12.09866300           0.23715420
                         3.80632320           0.46919870
                         1.27289030           0.35652020
    S   3 1.00
                         3.19646310          -0.11264870
                         0.74781330          -0.22950640
                         0.21996630           1.18691670
    P   3 1.00
                         3.19646310           0.05598020
                         0.74781330           0.26155060
                         0.21996630           0.79397230
    S   1 1.00
                         0.08230990           1.00000000
    P   1 1.00
                         0.08230990           1.00000000
    ****
   BE  10
    S   6 1.00
                      1264.58570000           0.00194480
                       189.93681000           0.01483510
                        43.15908900           0.07209060
                        12.09866300           0.23715420
                         3.80632320           0.46919870
                         1.27289030           0.35652020
    S   3 1.00
                         3.19646310          -0.11264870
                         0.74781330          -0.22950640
                         0.21996630           1.18691670
    P   3 1.00
                         3.19646310           0.05598020
                         0.74781330           0.26155060
                         0.21996630           0.79397230
    S   1 1.00
                         0.08230990           1.00000000
    P   1 1.00
                         0.08230990           1.00000000
    ****
   BE  11
    S   6 1.00
                      1264.58570000           0.00194480
                       189.93681000           0.01483510
                        43.15908900           0.07209060
                        12.09866300           0.23715420
                         3.80632320           0.46919870
                         1.27289030           0.35652020
    S   3 1.00
                         3.19646310          -0.11264870
                         0.74781330          -0.22950640
                         0.21996630           1.18691670
    P   3 1.00
                         3.19646310           0.05598020
                         0.74781330           0.26155060
                         0.21996630           0.79397230
    S   1 1.00
                         0.08230990           1.00000000
    P   1 1.00
                         0.08230990           1.00000000
    ****
   BE  12
    S   6 1.00
                      1264.58570000           0.00194480
                       189.93681000           0.01483510
                        43.15908900           0.07209060
                        12.09866300           0.23715420
                         3.80632320           0.46919870
                         1.27289030           0.35652020
    S   3 1.00
                         3.19646310          -0.11264870
                         0.74781330          -0.22950640
                         0.21996630           1.18691670
    P   3 1.00
                         3.19646310           0.05598020
                         0.74781330           0.26155060
                         0.21996630           0.79397230
    S   1 1.00
                         0.08230990           1.00000000
    P   1 1.00
                         0.08230990           1.00000000
    ****
   BE  13
    S   6 1.00
                      1264.58570000           0.00194480
                       189.93681000           0.01483510
                        43.15908900           0.07209060
                        12.09866300           0.23715420
                         3.80632320           0.46919870
                         1.27289030           0.35652020
    S   3 1.00
                         3.19646310          -0.11264870
                         0.74781330          -0.22950640
                         0.21996630           1.18691670
    P   3 1.00
                         3.19646310           0.05598020
                         0.74781330           0.26155060
                         0.21996630           0.79397230
    S   1 1.00
                         0.08230990           1.00000000
    P   1 1.00
                         0.08230990           1.00000000
    ****
   BE  14
    S   6 1.00
                      1264.58570000           0.00194480
                       189.93681000           0.01483510
                        43.15908900           0.07209060
                        12.09866300           0.23715420
                         3.80632320           0.46919870
                         1.27289030           0.35652020
    S   3 1.00
                         3.19646310          -0.11264870
                         0.74781330          -0.22950640
                         0.21996630           1.18691670
    P   3 1.00
                         3.19646310           0.05598020
                         0.74781330           0.26155060
                         0.21996630           0.79397230
    S   1 1.00
                         0.08230990           1.00000000
    P   1 1.00
                         0.08230990           1.00000000
    ****
   BE  15
    S   6 1.00
                      1264.58570000           0.00194480
                       189.93681000           0.01483510
                        43.15908900           0.07209060
                        12.09866300           0.23715420
                         3.80632320           0.46919870
                         1.27289030           0.35652020
    S   3 1.00
                         3.19646310          -0.11264870
                         0.74781330          -0.22950640
                         0.21996630           1.18691670
    P   3 1.00
                         3.19646310           0.05598020
                         0.74781330           0.26155060
                         0.21996630           0.79397230
    S   1 1.00
                         0.08230990           1.00000000
    P   1 1.00
                         0.08230990           1.00000000
    ****

  ==> Pre-Iterations <==

   -------------------------------------------------------
    Irrep   Nso     Nmo     Nalpha   Nbeta   Ndocc  Nsocc
   -------------------------------------------------------
     Ag        73      73       0       0       0       0
     B1g       28      28       0       0       0       0
     B2g       28      28       0       0       0       0
     B3g        0       0       0       0       0       0
     Au         0       0       0       0       0       0
     B1u       30      30       0       0       0       0
     B2u       30      30       0       0       0       0
     B3u       72      72       0       0       0       0
   -------------------------------------------------------
    Total     261     261      58      58      58       0
   -------------------------------------------------------

  ==> Integral Setup <==

  Using in-core PK algorithm.
   Calculation information:
      Number of atoms:                  29
      Number of AO shells:             145
      Number of primitives:            406
      Number of atomic orbitals:       261
      Number of basis functions:       261

      Integral cutoff                 1.00e-12
      Number of threads:                 1

  Performing in-core PK
  Using 1169058672 doubles for integral storage.
  We computed 1076520 shell quartets total.
  Whereas there are 56026405 unique shell quartets.
  ==> DiskJK: Disk-Based J/K Matrices <==

    J tasked:                  Yes
    K tasked:                  Yes
    wK tasked:                  No
    Memory (MB):             17166
    Schwarz Cutoff:          1E-12

    OpenMP threads:              1
  Minimum eigenvalue in the overlap matrix is 1.0041232813E-01.
  Using Symmetric Orthogonalization.
  SCF Guess: Superposition of Atomic Densities via on-the-fly atomic UHF.

  ==> Iterations <==

                        Total Energy        Delta E     RMS |[F,P]|

   @RHF iter   0:  -422.46147131753139   -4.22461e+02   7.49706e-04 
   @RHF iter   1:  -422.44217666072063    1.92947e-02   1.66535e-04 
   @RHF iter   2:  -422.44338929505943   -1.21263e-03   5.50350e-05 DIIS
   @RHF iter   3:  -422.44354804571810   -1.58751e-04   2.71711e-06 DIIS
   @RHF iter   4:  -422.44354832455872   -2.78841e-07   1.07876e-07 DIIS
   @RHF iter   5:  -422.44354832486329   -3.04567e-10   2.11192e-08 DIIS
   @RHF iter   6:  -422.44354832487602   -1.27329e-11   2.61163e-09 DIIS

  ==> Post-Iterations <==

    Orbital Energies (a.u.)
    -----------------------

    Doubly Occupied:                                                      

       1B3u   -4.708044     1Ag    -4.708044     2Ag    -4.707928  
       2B3u   -4.707928     3Ag    -4.707887     3B3u   -4.707887  
       4B3u   -4.707870     4Ag    -4.707870     5Ag    -4.707863  
       5B3u   -4.707863     6Ag    -4.707859     6B3u   -4.707859  
       7Ag    -4.707857     7B3u   -4.707857     8Ag    -4.707856  
       8B3u   -4.707856     9Ag    -4.707855     9B3u   -4.707855  
      10Ag    -4.707855    10B3u   -4.707854    11Ag    -4.707854  
      11B3u   -4.707853    12Ag    -4.707853    12B3u   -4.707852  
      13Ag    -4.707851    13B3u   -4.707851    14Ag    -4.707850  
      15Ag    -4.707374    14B3u   -4.707374    16Ag    -0.317487  
      15B3u   -0.317271    17Ag    -0.316905    16B3u   -0.316389  
      18Ag    -0.315725    17B3u   -0.314917    19Ag    -0.313968  
      18B3u   -0.312885    20Ag    -0.311673    19B3u   -0.310342  
      21Ag    -0.308899    20B3u   -0.307356    22Ag    -0.305724  
      21B3u   -0.304018    23Ag    -0.302252    22B3u   -0.300443  
      24Ag    -0.298610    23B3u   -0.296772    25Ag    -0.294952  
      24B3u   -0.293172    26Ag    -0.291456    25B3u   -0.289829  
      27Ag    -0.288315    26B3u   -0.286939    28Ag    -0.285724  
      27B3u   -0.284693    29Ag    -0.283864    28B3u   -0.283256  
      30Ag    -0.282881  

    Virtual:                                                              

      29B3u    0.037626    31Ag     0.038422    30B3u    0.039751  
      32Ag     0.041603    31B3u    0.043962    33Ag     0.046810  
      32B3u    0.050124    34Ag     0.053880    33B3u    0.058053  
      35Ag     0.062613    34B3u    0.067532     1B2u    0.068148  
       1B1u    0.068148     1B2g    0.068358     1B1g    0.068358  
       2B1u    0.068715     2B2u    0.068715     2B2g    0.069216  
       2B1g    0.069216     3B2u    0.069857     3B1u    0.069857  
       3B2g    0.070635     3B1g    0.070635     4B1u    0.071542  
       4B2u    0.071542     4B2g    0.072572     4B1g    0.072572  
      36Ag     0.072779     5B2u    0.073714     5B1u    0.073714  
       5B2g    0.074959     5B1g    0.074959     6B2u    0.076296  
       6B1u    0.076296     6B2g    0.077712     6B1g    0.077712  
      35B3u    0.078324     7B2u    0.079194     7B1u    0.079194  
       7B2g    0.080726     7B1g    0.080726     8B2u    0.082293  
       8B1u    0.082293     8B2g    0.083878     8B1g    0.083878  
      37Ag     0.084130     9B2u    0.085462     9B1u    0.085462  
       9B2g    0.087028     9B1g    0.087028    10B2u    0.088558  
      10B1u    0.088558    10B2g    0.090032    10B1g    0.090032  
      36B3u    0.090162    11B2u    0.091433    11B1u    0.091433  
      11B2g    0.092742    11B1g    0.092742    12B2u    0.093944  
      12B1u    0.093944    12B2g    0.095022    12B1g    0.095022  
      13B2u    0.095962    13B1u    0.095962    38Ag     0.096376  
      13B2g    0.096753    13B1g    0.096753    14B2u    0.097383  
      14B1u    0.097383    14B2g    0.097843    14B1g    0.097843  
      15B2u    0.098126    15B1u    0.098126    37B3u    0.102725  
      39Ag     0.109155    38B3u    0.115600    40Ag     0.121988  
      39B3u    0.128234    41Ag     0.134243    40B3u    0.139912  
      42Ag     0.145130    41B3u    0.149787    43Ag     0.153775  
      42B3u    0.156996    44Ag     0.159365    43B3u    0.160817  
      45Ag     0.395854    44B3u    0.396241    46Ag     0.396893  
      45B3u    0.397813    47Ag     0.399002    46B3u    0.400456  
      48Ag     0.402172    47B3u    0.404140    49Ag     0.406348  
      48B3u    0.408782    50Ag     0.411424    49B3u    0.414253  
      51Ag     0.417248    50B3u    0.420385    52Ag     0.423642  
      51B3u    0.426993    53Ag     0.430414    52B3u    0.433878  
      54Ag     0.437356    53B3u    0.440819    16B1u    0.442630  
      16B2u    0.442630    15B1g    0.442913    15B2g    0.442913  
      17B1u    0.443395    17B2u    0.443395    16B2g    0.444075  
      16B1g    0.444075    55Ag     0.444233    18B1u    0.444955  
      18B2u    0.444955    17B2g    0.446036    17B1g    0.446036  
      19B2u    0.447317    19B1u    0.447317    54B3u    0.447559  
      18B1g    0.448797    18B2g    0.448797    20B2u    0.450476  
      20B1u    0.450476    56Ag     0.450752    19B1g    0.452349  
      19B2g    0.452349    55B3u    0.453757    21B2u    0.454413  
      21B1u    0.454413    57Ag     0.456511    20B1g    0.456660  
      20B2g    0.456660    56B3u    0.458934    22B1u    0.459079  
      22B2u    0.459079    58Ag     0.460933    21B1g    0.461658  
      21B2g    0.461658    57B3u    0.462379    59Ag     0.464314  
      58B3u    0.464333    23B1u    0.464380    23B2u    0.464380  
      22B1g    0.467222    22B2g    0.467222    24B2u    0.470159  
      24B1u    0.470159    23B1g    0.473158    23B2g    0.473158  
      25B1u    0.476183    25B2u    0.476183    24B2g    0.479192  
      24B1g    0.479192    26B2u    0.482139    26B1u    0.482139  
      25B1g    0.484974    25B2g    0.484974    27B2u    0.487646  
      27B1u    0.487646    26B1g    0.490101    26B2g    0.490101  
      28B2u    0.492288    28B1u    0.492288    27B1g    0.494157  
      27B2g    0.494157    29B2u    0.495665    29B1u    0.495665  
      28B1g    0.496774    28B2g    0.496774    30B2u    0.497455  
      30B1u    0.497455    60Ag     0.523428    59B3u    0.524404  
      61Ag     0.525979    60B3u    0.528081    62Ag     0.530638  
      61B3u    0.533584    63Ag     0.536868    62B3u    0.540454  
      64Ag     0.544321    63B3u    0.548463    65Ag     0.552882  
      64B3u    0.557593    66Ag     0.562615    65B3u    0.567974  
      67Ag     0.573697    66B3u    0.579810    68Ag     0.586332  
      67B3u    0.593269    69Ag     0.600606    68B3u    0.608295  
      70Ag     0.616246    69B3u    0.624314    71Ag     0.632294  
      70B3u    0.639917    72Ag     0.646861    71B3u    0.652774  
      73Ag     0.657309    72B3u    0.660168  

    Final Occupation by Irrep:
             Ag   B1g   B2g   B3g    Au   B1u   B2u   B3u 
    DOCC [    30,    0,    0,    0,    0,    0,    0,   28 ]

  Energy converged.

  @RHF Final Energy:  -422.44354832487602

   => Energetics <=

    Nuclear Repulsion Energy =            161.5998257532292257
    One-Electron Energy =                -877.5583963876119924
    Two-Electron Energy =                 293.5150223095067759
    DFT Exchange-Correlation Energy =       0.0000000000000000
    Empirical Dispersion Energy =           0.0000000000000000
    PCM Polarization Energy =               0.0000000000000000
    EFP Energy =                            0.0000000000000000
    Total Energy =                       -422.4435483248760193


  Saving occupied orbitals to File 180.

*** tstop() called on chemistry.org at Mon Jan  8 20:44:30 2018
Module time:
	user time   =      14.96 seconds =       0.25 minutes
	system time =       2.05 seconds =       0.03 minutes
	total time  =         17 seconds =       0.28 minutes
Total time:
	user time   =      14.96 seconds =       0.25 minutes
	system time =       2.05 seconds =       0.03 minutes
	total time  =         17 seconds =       0.28 minutes


Properties will be evaluated at   0.000000,   0.000000,   0.000000 Bohr

Properties computed using the SCF density matrix

  Nuclear Dipole Moment: (a.u.)
     X:     0.0000      Y:    -0.0000      Z:     0.0000

  Electronic Dipole Moment: (a.u.)
     X:     0.0000      Y:     0.0000      Z:     0.0000

  Dipole Moment: (a.u.)
     X:     0.0000      Y:    -0.0000      Z:     0.0000     Total:     0.0000

  Dipole Moment: (Debye)
     X:     0.0000      Y:    -0.0000      Z:     0.0000     Total:     0.0000

 MINTS: Wrapper to libmints.
   by Justin Turney

   Calculation information:
      Number of atoms:                  29
      Number of AO shells:             145
      Number of SO shells:              75
      Number of primitives:            406
      Number of atomic orbitals:       261
      Number of basis functions:       261

      Number of irreps:                  8
      Integral cutoff                 0.00e+00
      Number of functions per irrep: [  73   28   28    0    0   30   30   72 ]

 OEINTS: Overlap, kinetic, potential, dipole, and quadrupole integrals
         stored in file 35.

      Computing two-electron integrals...done
      Computed 70270925 non-zero two-electron integrals.
        Stored in file 33.


*** tstart() called on chemistry.org
*** at Mon Jan  8 20:46:20 2018


	Wfn Parameters:
	--------------------
	Wavefunction         = CCSD_T
	Number of irreps     = 8
	Number of MOs        = 261
	Number of active MOs = 232
	AO-Basis             = NONE
	Semicanonical        = false
	Reference            = RHF
	Print Level          = 1

	IRREP	# MOs	# FZDC	# DOCC	# SOCC	# VIRT	# FZVR
	-----	-----	------	------	------	------	------
	 Ag	   73	    15	    15	    0	    43	    0
	 B1g	   28	    0	    0	    0	    28	    0
	 B2g	   28	    0	    0	    0	    28	    0
	 B3g	   0	    0	    0	    0	    0	    0
	 Au	   0	    0	    0	    0	    0	    0
	 B1u	   30	    0	    0	    0	    30	    0
	 B2u	   30	    0	    0	    0	    30	    0
	 B3u	   72	    14	    14	    0	    44	    0
	Transforming integrals...
	IWL integrals will be deleted.
	(OO|OO)...
	Presorting SO-basis two-electron integrals.
	Sorting File: SO Ints (nn|nn) nbuckets = 1
	Transforming the one-electron integrals and constructing Fock matrices
	Starting first half-transformation.
	Sorting half-transformed integrals.
	First half integral transformation complete.
	Starting second half-transformation.
	Two-electron integral transformation complete.
	(OO|OV)...
	Starting second half-transformation.
	Two-electron integral transformation complete.
	(OO|VV)...
	Starting second half-transformation.
	Two-electron integral transformation complete.
	(OV|OO)...
	Starting first half-transformation.
	Sorting half-transformed integrals.
	First half integral transformation complete.
	Starting second half-transformation.
	Two-electron integral transformation complete.
	(OV|OV)...
	Starting second half-transformation.
	Two-electron integral transformation complete.
	(OV|VV)...
	Starting second half-transformation.
	Two-electron integral transformation complete.
	(VV|OO)...
	Starting first half-transformation.
	Sorting half-transformed integrals.
	First half integral transformation complete.
	Starting second half-transformation.
	Two-electron integral transformation complete.
	(VV|OV)...
	Starting second half-transformation.
	Two-electron integral transformation complete.
	(VV|VV)...
	Starting second half-transformation.
	Two-electron integral transformation complete.
	Frozen core energy     =   -515.88128864968644

	Size of irrep 0 of <ab|cd> integrals:     51.165 (MW) /    409.323 (MB)
	Size of irrep 1 of <ab|cd> integrals:     25.482 (MW) /    203.858 (MB)
	Size of irrep 2 of <ab|cd> integrals:     25.482 (MW) /    203.858 (MB)
	Size of irrep 3 of <ab|cd> integrals:     11.343 (MW) /     90.747 (MB)
	Size of irrep 4 of <ab|cd> integrals:     11.290 (MW) /     90.317 (MB)
	Size of irrep 5 of <ab|cd> integrals:     25.442 (MW) /    203.535 (MB)
	Size of irrep 6 of <ab|cd> integrals:     25.442 (MW) /    203.535 (MB)
	Size of irrep 7 of <ab|cd> integrals:     51.037 (MW) /    408.294 (MB)
	Total:                                   226.684 (MW) /   1813.469 (MB)

	Size of irrep 0 of <ia|bc> integrals:      9.020 (MW) /     72.159 (MB)
	Size of irrep 1 of <ia|bc> integrals:      4.240 (MW) /     33.923 (MB)
	Size of irrep 2 of <ia|bc> integrals:      4.240 (MW) /     33.923 (MB)
	Size of irrep 3 of <ia|bc> integrals:      0.000 (MW) /      0.000 (MB)
	Size of irrep 4 of <ia|bc> integrals:      0.000 (MW) /      0.000 (MB)
	Size of irrep 5 of <ia|bc> integrals:      4.247 (MW) /     33.976 (MB)
	Size of irrep 6 of <ia|bc> integrals:      4.247 (MW) /     33.976 (MB)
	Size of irrep 7 of <ia|bc> integrals:      9.016 (MW) /     72.126 (MB)
	Total:                                    35.010 (MW) /    280.083 (MB)

	Size of irrep 0 of tijab amplitudes:       3.011 (MW) /     24.091 (MB)
	Size of irrep 1 of tijab amplitudes:       0.000 (MW) /      0.000 (MB)
	Size of irrep 2 of tijab amplitudes:       0.000 (MW) /      0.000 (MB)
	Size of irrep 3 of tijab amplitudes:       0.000 (MW) /      0.000 (MB)
	Size of irrep 4 of tijab amplitudes:       0.000 (MW) /      0.000 (MB)
	Size of irrep 5 of tijab amplitudes:       0.000 (MW) /      0.000 (MB)
	Size of irrep 6 of tijab amplitudes:       0.000 (MW) /      0.000 (MB)
	Size of irrep 7 of tijab amplitudes:       3.000 (MW) /     24.004 (MB)
	Total:                                     6.012 (MW) /     48.095 (MB)

	Nuclear Rep. energy          =    161.59982575322925
	SCF energy                   =   -422.44354832487602
	One-electron energy          =   -118.85073850586446
	Two-electron energy          =     50.68865307743645
	Reference energy             =   -422.44354832488523

*** tstop() called on chemistry.org at Mon Jan  8 20:47:04 2018
Module time:
	user time   =      28.78 seconds =       0.48 minutes
	system time =      15.10 seconds =       0.25 minutes
	total time  =         44 seconds =       0.73 minutes
Total time:
	user time   =     152.22 seconds =       2.54 minutes
	system time =      18.01 seconds =       0.30 minutes
	total time  =        171 seconds =       2.85 minutes

*** tstart() called on chemistry.org
*** at Mon Jan  8 20:47:04 2018

            **************************
            *                        *
            *        CCENERGY        *
            *                        *
            **************************

    Nuclear Rep. energy (wfn)     =  161.599825753229254
    SCF energy          (wfn)     = -422.443548324876019
    Reference energy    (file100) = -422.443548324885228

    Input parameters:
    -----------------
    Wave function   =     CCSD_T
    Reference wfn   =     RHF
    Brueckner       =     No
    Memory (Mbytes) =     24000.0
    Maxiter         =     50
    R_Convergence   =     1.0e-07
    E_Convergence   =     1.0e-10
    Restart         =     Yes
    DIIS            =     Yes
    AO Basis        =     NONE
    ABCD            =     NEW
    Cache Level     =     2
    Cache Type      =     LOW
    Print Level     =     1
    Num. of threads =     1
    # Amps to Print =     10
    Print MP2 Amps? =     No
    Analyze T2 Amps =     No
    Print Pair Ener =     No
    Local CC        =     No
    SCS-MP2         =     False
    SCSN-MP2        =     False
    SCS-CCSD        =     False

MP2 correlation energy -0.6878051983209404
                Solving CC Amplitude Equations
                ------------------------------
  Iter             Energy              RMS        T1Diag      D1Diag    New D1Diag    D2Diag
  ----     ---------------------    ---------   ----------  ----------  ----------   --------
     0        -0.687805198320904    0.000e+00    0.000000    0.000000    0.000000    0.168075
     1        -1.013595523646850    4.482e-01    0.004446    0.006792    0.006792    0.252472
     2        -1.331571164449721    2.342e-01    0.011989    0.018928    0.018928    0.339918
     3        -1.325399035772811    2.132e-02    0.013249    0.021262    0.021262    0.339663
     4        -1.331975887471587    6.359e-03    0.013546    0.021843    0.021843    0.341509
     5        -1.333521901947505    1.315e-03    0.013641    0.022050    0.022050    0.341908
     6        -1.332534122276493    8.252e-04    0.013617    0.022013    0.022013    0.341630
     7        -1.332386572856384    1.078e-04    0.013615    0.022011    0.022011    0.341589
     8        -1.332429338638601    6.135e-05    0.013616    0.022014    0.022014    0.341601
     9        -1.332448617308402    2.138e-05    0.013617    0.022014    0.022014    0.341606
    10        -1.332448223364179    1.027e-05    0.013617    0.022014    0.022014    0.341606
    11        -1.332447587378494    5.991e-06    0.013616    0.022014    0.022014    0.341606
    12        -1.332447611680676    2.183e-06    0.013616    0.022014    0.022014    0.341606
    13        -1.332447715740660    1.138e-06    0.013616    0.022013    0.022013    0.341606
    14        -1.332447739093382    4.254e-07    0.013616    0.022013    0.022013    0.341606
    15        -1.332447741624897    1.807e-07    0.013616    0.022013    0.022013    0.341606
    16        -1.332447730437907    9.077e-08    0.013616    0.022013    0.022013    0.341606
    17        -1.332447727905168    3.192e-08    0.013616    0.022013    0.022013    0.341606
    18        -1.332447725954364    8.609e-09    0.013616    0.022013    0.022013    0.341606
    19        -1.332447725255512    4.088e-09    0.013616    0.022013    0.022013    0.341606
    20        -1.332447725233678    2.368e-09    0.013616    0.022013    0.022013    0.341606
    21        -1.332447725343527    1.325e-09    0.013616    0.022013    0.022013    0.341606

    Iterations converged.


    Largest TIA Amplitudes:
              0  14        -0.0178874136
             15 174        -0.0177646660
              1  15         0.0175672058
             16 175         0.0173061371
              2  16         0.0169917611
             17 176         0.0166343515
              3  17         0.0162437083
             18 177         0.0158286090
              4  18         0.0153963880
             19 178         0.0149526984

    Largest TIjAb Amplitudes:
      7   7 106 106        -0.0113868512
      7   7 136 136        -0.0113868512
      7   7 166 166        -0.0108169480
     15  15   0   0        -0.0103159953
      1   1 160 160        -0.0102937013
      0   0 159 159        -0.0102573065
     16  16   1   1        -0.0102269895
      2   2 161 161        -0.0101282756
     17  17   2   2        -0.0100041592
     14  14 113 113        -0.0099231565

    SCF energy       (wfn)                    = -422.443548324876019
    Reference energy (file100)                = -422.443548324885228

    Opposite-spin MP2 correlation energy      =   -0.679374871873041
    Same-spin MP2 correlation energy          =   -0.008430326447863
    MP2 correlation energy                    =   -0.687805198320940
      * MP2 total energy                      = -423.131353523206144

    Opposite-spin CCSD correlation energy     =   -1.323420386716641
    Same-spin CCSD correlation energy         =   -0.009027344502837
    CCSD correlation energy                   =   -1.332447725343527
      * CCSD total energy                     = -423.775996050228741


*** tstop() called on chemistry.org at Mon Jan  8 20:51:23 2018
Module time:
	user time   =     123.08 seconds =       2.05 minutes
	system time =      58.70 seconds =       0.98 minutes
	total time  =        259 seconds =       4.32 minutes
Total time:
	user time   =     275.30 seconds =       4.59 minutes
	system time =      76.71 seconds =       1.28 minutes
	total time  =        430 seconds =       7.17 minutes

*** tstart() called on chemistry.org
*** at Mon Jan  8 20:51:23 2018

            **************************
            *                        *
            *        CCTRIPLES       *
            *                        *
            **************************


    Wave function   =    CCSD_T
    Reference wfn   =      RHF

    Nuclear Rep. energy (wfn)                =  161.599825753229254
    SCF energy          (wfn)                = -422.443548324876019
    Reference energy    (file100)            = -422.443548324885228
    CCSD energy         (file100)            =   -1.332447725343527
    Total CCSD energy   (file100)            = -423.775996050228741

    Number of ijk index combinations:             4495
    Memory available in words        :      3000000000
    ~Words needed per explicit thread:          340736
    Number of threads for explicit ijk threading:    1

    (T) energy                                =   -0.001851406661692
      * CCSD(T) total energy                  = -423.777847456890470


*** tstop() called on chemistry.org at Mon Jan  8 21:03:14 2018
Module time:
	user time   =     580.41 seconds =       9.67 minutes
	system time =     130.90 seconds =       2.18 minutes
	total time  =        711 seconds =      11.85 minutes
Total time:
	user time   =     855.71 seconds =      14.26 minutes
	system time =     207.61 seconds =       3.46 minutes
	total time  =       1141 seconds =      19.02 minutes

*** Psi4 exiting successfully. Buy a developer a beer!
