    -----------------------------------------------------------------------
          Psi4: An Open-Source Ab Initio Electronic Structure Package
                              Psi4 1.0.0 Driver

                          Git: Rev {master} 6a9a71b dirty

    J. M. Turney, A. C. Simmonett, R. M. Parrish, E. G. Hohenstein,
    F. A. Evangelista, J. T. Fermann, B. J. Mintz, L. A. Burns, J. J. Wilke,
    M. L. Abrams, N. J. Russ, M. L. Leininger, C. L. Janssen, E. T. Seidl,
    W. D. Allen, H. F. Schaefer, R. A. King, E. F. Valeev, C. D. Sherrill,
    and T. D. Crawford, WIREs Comput. Mol. Sci. 2, 556-565 (2012)
    (doi: 10.1002/wcms.93)

                         Additional Contributions by
    A. E. DePrince, U. Bozkaya, A. Yu. Sokolov, D. G. A. Smith, R. Di Remigio,
    R. M. Richard, J. F. Gonthier, H. R. McAlexander, M. Saitow, and
    B. P. Pritchard
    -----------------------------------------------------------------------


    Psi4 started on: Mon Jan  8 20:17:52 2018

    Process ID:  33221
    PSI4DATADIR: /home/yhliu/psi4conda/share/psi4
    Memory level set to 256.000 MB

  ==> Input File <==

--------------------------------------------------------------------------
memory 24 Gb
molecule beN {
0 1
Be   0.0    0.0 0.0
Be   4.5    0.0 0.0
Be   9.0    0.0 0.0
Be  13.5    0.0 0.0
Be  18.0    0.0 0.0
Be  22.5    0.0 0.0
Be  27.0    0.0 0.0
Be  31.5    0.0 0.0
Be  36.0    0.0 0.0
Be  40.5    0.0 0.0
Be  45.0    0.0 0.0
Be  49.5    0.0 0.0
Be  54.0    0.0 0.0
Be  58.5    0.0 0.0
Be  63.0    0.0 0.0
Be  67.5    0.0 0.0
Be  72.0    0.0 0.0
Be  76.5    0.0 0.0
Be  81.0    0.0 0.0
Be  85.5    0.0 0.0
Be  90.0    0.0 0.0
Be  94.5    0.0 0.0
Be  99.0    0.0 0.0
Be 103.5    0.0 0.0
Be 108.0    0.0 0.0
Be 112.5    0.0 0.0
Be 117.0    0.0 0.0
units angstrom    
}

set basis 6-31g
set freeze_core true
set PRINT_BASIS True
set PUREAM False
set E_CONVERGENCE 1e-10
energy('ccsd(t)')
--------------------------------------------------------------------------
/home/yhliu/psi4conda/lib/python2.7/site-packages/v2rdm_casscf/v2rdm_casscf.so loaded.

  Memory set to  24.000 GiB by Python script.

*** tstart() called on chemistry.org
*** at Mon Jan  8 20:17:53 2018


         ---------------------------------------------------------
                                   SCF
            by Justin Turney, Rob Parrish, and Andy Simmonett
                              RHF Reference
                        1 Threads,  24000 MiB Core
         ---------------------------------------------------------

  ==> Geometry <==

    Molecular point group: d2h
    Full point group: D_inf_h

    Geometry (in Angstrom), charge = 0, multiplicity = 1:

       Center              X                  Y                   Z               Mass       
    ------------   -----------------  -----------------  -----------------  -----------------
          BE        -58.500000000000    -0.000000000000     0.000000000000     9.012182201000
          BE        -54.000000000000    -0.000000000000     0.000000000000     9.012182201000
          BE        -49.500000000000    -0.000000000000     0.000000000000     9.012182201000
          BE        -45.000000000000    -0.000000000000     0.000000000000     9.012182201000
          BE        -40.500000000000    -0.000000000000     0.000000000000     9.012182201000
          BE        -36.000000000000    -0.000000000000     0.000000000000     9.012182201000
          BE        -31.500000000000    -0.000000000000     0.000000000000     9.012182201000
          BE        -27.000000000000    -0.000000000000     0.000000000000     9.012182201000
          BE        -22.500000000000    -0.000000000000     0.000000000000     9.012182201000
          BE        -18.000000000000    -0.000000000000     0.000000000000     9.012182201000
          BE        -13.500000000000    -0.000000000000     0.000000000000     9.012182201000
          BE         -9.000000000000    -0.000000000000     0.000000000000     9.012182201000
          BE         -4.500000000000    -0.000000000000     0.000000000000     9.012182201000
          BE          0.000000000000     0.000000000000     0.000000000000     9.012182201000
          BE          4.500000000000     0.000000000000     0.000000000000     9.012182201000
          BE          9.000000000000     0.000000000000     0.000000000000     9.012182201000
          BE         13.500000000000     0.000000000000     0.000000000000     9.012182201000
          BE         18.000000000000     0.000000000000     0.000000000000     9.012182201000
          BE         22.500000000000     0.000000000000     0.000000000000     9.012182201000
          BE         27.000000000000     0.000000000000     0.000000000000     9.012182201000
          BE         31.500000000000     0.000000000000     0.000000000000     9.012182201000
          BE         36.000000000000     0.000000000000     0.000000000000     9.012182201000
          BE         40.500000000000     0.000000000000     0.000000000000     9.012182201000
          BE         45.000000000000     0.000000000000     0.000000000000     9.012182201000
          BE         49.500000000000     0.000000000000     0.000000000000     9.012182201000
          BE         54.000000000000     0.000000000000     0.000000000000     9.012182201000
          BE         58.500000000000     0.000000000000     0.000000000000     9.012182201000

  Running in d2h symmetry.

  Rotational constants: A = ************  B =      0.00006  C =      0.00006 [cm^-1]
  Rotational constants: A = ************  B =      1.69063  C =      1.69063 [MHz]
  Nuclear repulsion =  146.888929290685695

  Charge       = 0
  Multiplicity = 1
  Electrons    = 108
  Nalpha       = 54
  Nbeta        = 54

  ==> Algorithm <==

  SCF Algorithm Type is PK.
  DIIS enabled.
  MOM disabled.
  Fractional occupation disabled.
  Guess Type is SAD.
  Energy threshold   = 1.00e-10
  Density threshold  = 1.00e-08
  Integral threshold = 0.00e+00

  ==> Primary Basis <==

  Basis Set: 6-31G
    Number of shells: 135
    Number of basis function: 243
    Number of Cartesian functions: 243
    Spherical Harmonics?: false
    Max angular momentum: 1

  -AO BASIS SET INFORMATION:
    Name                   = 6-31G
    Total number of shells = 135
    Number of primitives   = 378
    Number of AO           = 243
    Number of SO           = 243
    Maximum AM             = 1
    Spherical Harmonics    = FALSE

  -Contraction Scheme:
    Atom   Type   All Primitives // Shells:
   ------ ------ --------------------------
       1    BE     10s 4p // 3s 2p 
       2    BE     10s 4p // 3s 2p 
       3    BE     10s 4p // 3s 2p 
       4    BE     10s 4p // 3s 2p 
       5    BE     10s 4p // 3s 2p 
       6    BE     10s 4p // 3s 2p 
       7    BE     10s 4p // 3s 2p 
       8    BE     10s 4p // 3s 2p 
       9    BE     10s 4p // 3s 2p 
      10    BE     10s 4p // 3s 2p 
      11    BE     10s 4p // 3s 2p 
      12    BE     10s 4p // 3s 2p 
      13    BE     10s 4p // 3s 2p 
      14    BE     10s 4p // 3s 2p 
      15    BE     10s 4p // 3s 2p 
      16    BE     10s 4p // 3s 2p 
      17    BE     10s 4p // 3s 2p 
      18    BE     10s 4p // 3s 2p 
      19    BE     10s 4p // 3s 2p 
      20    BE     10s 4p // 3s 2p 
      21    BE     10s 4p // 3s 2p 
      22    BE     10s 4p // 3s 2p 
      23    BE     10s 4p // 3s 2p 
      24    BE     10s 4p // 3s 2p 
      25    BE     10s 4p // 3s 2p 
      26    BE     10s 4p // 3s 2p 
      27    BE     10s 4p // 3s 2p 

  ==> AO Basis Functions <==

    [ 6-31G ]
    cartesian
    ****
   BE   1
    S   6 1.00
                      1264.58570000           0.00194480
                       189.93681000           0.01483510
                        43.15908900           0.07209060
                        12.09866300           0.23715420
                         3.80632320           0.46919870
                         1.27289030           0.35652020
    S   3 1.00
                         3.19646310          -0.11264870
                         0.74781330          -0.22950640
                         0.21996630           1.18691670
    P   3 1.00
                         3.19646310           0.05598020
                         0.74781330           0.26155060
                         0.21996630           0.79397230
    S   1 1.00
                         0.08230990           1.00000000
    P   1 1.00
                         0.08230990           1.00000000
    ****
   BE   2
    S   6 1.00
                      1264.58570000           0.00194480
                       189.93681000           0.01483510
                        43.15908900           0.07209060
                        12.09866300           0.23715420
                         3.80632320           0.46919870
                         1.27289030           0.35652020
    S   3 1.00
                         3.19646310          -0.11264870
                         0.74781330          -0.22950640
                         0.21996630           1.18691670
    P   3 1.00
                         3.19646310           0.05598020
                         0.74781330           0.26155060
                         0.21996630           0.79397230
    S   1 1.00
                         0.08230990           1.00000000
    P   1 1.00
                         0.08230990           1.00000000
    ****
   BE   3
    S   6 1.00
                      1264.58570000           0.00194480
                       189.93681000           0.01483510
                        43.15908900           0.07209060
                        12.09866300           0.23715420
                         3.80632320           0.46919870
                         1.27289030           0.35652020
    S   3 1.00
                         3.19646310          -0.11264870
                         0.74781330          -0.22950640
                         0.21996630           1.18691670
    P   3 1.00
                         3.19646310           0.05598020
                         0.74781330           0.26155060
                         0.21996630           0.79397230
    S   1 1.00
                         0.08230990           1.00000000
    P   1 1.00
                         0.08230990           1.00000000
    ****
   BE   4
    S   6 1.00
                      1264.58570000           0.00194480
                       189.93681000           0.01483510
                        43.15908900           0.07209060
                        12.09866300           0.23715420
                         3.80632320           0.46919870
                         1.27289030           0.35652020
    S   3 1.00
                         3.19646310          -0.11264870
                         0.74781330          -0.22950640
                         0.21996630           1.18691670
    P   3 1.00
                         3.19646310           0.05598020
                         0.74781330           0.26155060
                         0.21996630           0.79397230
    S   1 1.00
                         0.08230990           1.00000000
    P   1 1.00
                         0.08230990           1.00000000
    ****
   BE   5
    S   6 1.00
                      1264.58570000           0.00194480
                       189.93681000           0.01483510
                        43.15908900           0.07209060
                        12.09866300           0.23715420
                         3.80632320           0.46919870
                         1.27289030           0.35652020
    S   3 1.00
                         3.19646310          -0.11264870
                         0.74781330          -0.22950640
                         0.21996630           1.18691670
    P   3 1.00
                         3.19646310           0.05598020
                         0.74781330           0.26155060
                         0.21996630           0.79397230
    S   1 1.00
                         0.08230990           1.00000000
    P   1 1.00
                         0.08230990           1.00000000
    ****
   BE   6
    S   6 1.00
                      1264.58570000           0.00194480
                       189.93681000           0.01483510
                        43.15908900           0.07209060
                        12.09866300           0.23715420
                         3.80632320           0.46919870
                         1.27289030           0.35652020
    S   3 1.00
                         3.19646310          -0.11264870
                         0.74781330          -0.22950640
                         0.21996630           1.18691670
    P   3 1.00
                         3.19646310           0.05598020
                         0.74781330           0.26155060
                         0.21996630           0.79397230
    S   1 1.00
                         0.08230990           1.00000000
    P   1 1.00
                         0.08230990           1.00000000
    ****
   BE   7
    S   6 1.00
                      1264.58570000           0.00194480
                       189.93681000           0.01483510
                        43.15908900           0.07209060
                        12.09866300           0.23715420
                         3.80632320           0.46919870
                         1.27289030           0.35652020
    S   3 1.00
                         3.19646310          -0.11264870
                         0.74781330          -0.22950640
                         0.21996630           1.18691670
    P   3 1.00
                         3.19646310           0.05598020
                         0.74781330           0.26155060
                         0.21996630           0.79397230
    S   1 1.00
                         0.08230990           1.00000000
    P   1 1.00
                         0.08230990           1.00000000
    ****
   BE   8
    S   6 1.00
                      1264.58570000           0.00194480
                       189.93681000           0.01483510
                        43.15908900           0.07209060
                        12.09866300           0.23715420
                         3.80632320           0.46919870
                         1.27289030           0.35652020
    S   3 1.00
                         3.19646310          -0.11264870
                         0.74781330          -0.22950640
                         0.21996630           1.18691670
    P   3 1.00
                         3.19646310           0.05598020
                         0.74781330           0.26155060
                         0.21996630           0.79397230
    S   1 1.00
                         0.08230990           1.00000000
    P   1 1.00
                         0.08230990           1.00000000
    ****
   BE   9
    S   6 1.00
                      1264.58570000           0.00194480
                       189.93681000           0.01483510
                        43.15908900           0.07209060
                        12.09866300           0.23715420
                         3.80632320           0.46919870
                         1.27289030           0.35652020
    S   3 1.00
                         3.19646310          -0.11264870
                         0.74781330          -0.22950640
                         0.21996630           1.18691670
    P   3 1.00
                         3.19646310           0.05598020
                         0.74781330           0.26155060
                         0.21996630           0.79397230
    S   1 1.00
                         0.08230990           1.00000000
    P   1 1.00
                         0.08230990           1.00000000
    ****
   BE  10
    S   6 1.00
                      1264.58570000           0.00194480
                       189.93681000           0.01483510
                        43.15908900           0.07209060
                        12.09866300           0.23715420
                         3.80632320           0.46919870
                         1.27289030           0.35652020
    S   3 1.00
                         3.19646310          -0.11264870
                         0.74781330          -0.22950640
                         0.21996630           1.18691670
    P   3 1.00
                         3.19646310           0.05598020
                         0.74781330           0.26155060
                         0.21996630           0.79397230
    S   1 1.00
                         0.08230990           1.00000000
    P   1 1.00
                         0.08230990           1.00000000
    ****
   BE  11
    S   6 1.00
                      1264.58570000           0.00194480
                       189.93681000           0.01483510
                        43.15908900           0.07209060
                        12.09866300           0.23715420
                         3.80632320           0.46919870
                         1.27289030           0.35652020
    S   3 1.00
                         3.19646310          -0.11264870
                         0.74781330          -0.22950640
                         0.21996630           1.18691670
    P   3 1.00
                         3.19646310           0.05598020
                         0.74781330           0.26155060
                         0.21996630           0.79397230
    S   1 1.00
                         0.08230990           1.00000000
    P   1 1.00
                         0.08230990           1.00000000
    ****
   BE  12
    S   6 1.00
                      1264.58570000           0.00194480
                       189.93681000           0.01483510
                        43.15908900           0.07209060
                        12.09866300           0.23715420
                         3.80632320           0.46919870
                         1.27289030           0.35652020
    S   3 1.00
                         3.19646310          -0.11264870
                         0.74781330          -0.22950640
                         0.21996630           1.18691670
    P   3 1.00
                         3.19646310           0.05598020
                         0.74781330           0.26155060
                         0.21996630           0.79397230
    S   1 1.00
                         0.08230990           1.00000000
    P   1 1.00
                         0.08230990           1.00000000
    ****
   BE  13
    S   6 1.00
                      1264.58570000           0.00194480
                       189.93681000           0.01483510
                        43.15908900           0.07209060
                        12.09866300           0.23715420
                         3.80632320           0.46919870
                         1.27289030           0.35652020
    S   3 1.00
                         3.19646310          -0.11264870
                         0.74781330          -0.22950640
                         0.21996630           1.18691670
    P   3 1.00
                         3.19646310           0.05598020
                         0.74781330           0.26155060
                         0.21996630           0.79397230
    S   1 1.00
                         0.08230990           1.00000000
    P   1 1.00
                         0.08230990           1.00000000
    ****
   BE  14
    S   6 1.00
                      1264.58570000           0.00194480
                       189.93681000           0.01483510
                        43.15908900           0.07209060
                        12.09866300           0.23715420
                         3.80632320           0.46919870
                         1.27289030           0.35652020
    S   3 1.00
                         3.19646310          -0.11264870
                         0.74781330          -0.22950640
                         0.21996630           1.18691670
    P   3 1.00
                         3.19646310           0.05598020
                         0.74781330           0.26155060
                         0.21996630           0.79397230
    S   1 1.00
                         0.08230990           1.00000000
    P   1 1.00
                         0.08230990           1.00000000
    ****

  ==> Pre-Iterations <==

   -------------------------------------------------------
    Irrep   Nso     Nmo     Nalpha   Nbeta   Ndocc  Nsocc
   -------------------------------------------------------
     Ag        68      68       0       0       0       0
     B1g       26      26       0       0       0       0
     B2g       26      26       0       0       0       0
     B3g        0       0       0       0       0       0
     Au         0       0       0       0       0       0
     B1u       28      28       0       0       0       0
     B2u       28      28       0       0       0       0
     B3u       67      67       0       0       0       0
   -------------------------------------------------------
    Total     243     243      54      54      54       0
   -------------------------------------------------------

  ==> Integral Setup <==

  Using in-core PK algorithm.
   Calculation information:
      Number of atoms:                  27
      Number of AO shells:             135
      Number of primitives:            378
      Number of atomic orbitals:       243
      Number of basis functions:       243

      Integral cutoff                 1.00e-12
      Number of threads:                 1

  Performing in-core PK
  Using 878914962 doubles for integral storage.
  We computed 928555 shell quartets total.
  Whereas there are 42140790 unique shell quartets.
  ==> DiskJK: Disk-Based J/K Matrices <==

    J tasked:                  Yes
    K tasked:                  Yes
    wK tasked:                  No
    Memory (MB):             17166
    Schwarz Cutoff:          1E-12

    OpenMP threads:              1
  Minimum eigenvalue in the overlap matrix is 1.0041352015E-01.
  Using Symmetric Orthogonalization.
  SCF Guess: Superposition of Atomic Densities via on-the-fly atomic UHF.

  ==> Iterations <==

                        Total Energy        Delta E     RMS |[F,P]|

   @RHF iter   0:  -393.32613508274142   -3.93326e+02   7.75969e-04 
   @RHF iter   1:  -393.30821980915118    1.79153e-02   1.72356e-04 
   @RHF iter   2:  -393.30934567297629   -1.12586e-03   5.69522e-05 DIIS
   @RHF iter   3:  -393.30949303233797   -1.47359e-04   2.81608e-06 DIIS
   @RHF iter   4:  -393.30949329187536   -2.59537e-07   1.14759e-07 DIIS
   @RHF iter   5:  -393.30949329217367   -2.98314e-10   2.23527e-08 DIIS
   @RHF iter   6:  -393.30949329218606   -1.23919e-11   2.75530e-09 DIIS

  ==> Post-Iterations <==

    Orbital Energies (a.u.)
    -----------------------

    Doubly Occupied:                                                      

       1Ag    -4.708044     1B3u   -4.708044     2B3u   -4.707928  
       2Ag    -4.707928     3Ag    -4.707887     3B3u   -4.707887  
       4B3u   -4.707870     4Ag    -4.707870     5Ag    -4.707863  
       5B3u   -4.707863     6Ag    -4.707859     6B3u   -4.707859  
       7Ag    -4.707857     7B3u   -4.707857     8Ag    -4.707856  
       8B3u   -4.707856     9Ag    -4.707855     9B3u   -4.707855  
      10Ag    -4.707855    10B3u   -4.707854    11Ag    -4.707854  
      11B3u   -4.707853    12Ag    -4.707852    12B3u   -4.707851  
      13Ag    -4.707850    13B3u   -4.707374    14Ag    -4.707374  
      15Ag    -0.317477    14B3u   -0.317229    16Ag    -0.316808  
      15B3u   -0.316216    17Ag    -0.315454    16B3u   -0.314528  
      18Ag    -0.313443    17B3u   -0.312207    19Ag    -0.310829  
      18B3u   -0.309320    20Ag    -0.307692    19B3u   -0.305959  
      21Ag    -0.304138    20B3u   -0.302248    22Ag    -0.300309  
      21B3u   -0.298343    23Ag    -0.296377    22B3u   -0.294436  
      24Ag    -0.292549    23B3u   -0.290745    25Ag    -0.289056  
      24B3u   -0.287510    26Ag    -0.286139    25B3u   -0.284969  
      27Ag    -0.284025    26B3u   -0.283330    28Ag    -0.282900  

    Virtual:                                                              

      27B3u    0.037664    29Ag     0.038576    28B3u    0.040098  
      30Ag     0.042216    29B3u    0.044910    31Ag     0.048156  
      30B3u    0.051927    32Ag     0.056189    31B3u    0.060912  
      33Ag     0.066058     1B2u    0.068158     1B1u    0.068158  
       1B2g    0.068399     1B1g    0.068399     2B2u    0.068808  
       2B1u    0.068808     2B2g    0.069383     2B1g    0.069383  
       3B2u    0.070118     3B1u    0.070118     3B2g    0.071006  
       3B1g    0.071006    32B3u    0.071593     4B2u    0.072040  
       4B1u    0.072040     4B2g    0.073209     4B1g    0.073209  
       5B2u    0.074502     5B1u    0.074502     5B2g    0.075904  
       5B1g    0.075904     6B2u    0.077402     6B1u    0.077402  
      34Ag     0.077477     6B2g    0.078979     6B1g    0.078979  
       7B2u    0.080615     7B1u    0.080615     7B2g    0.082293  
       7B1g    0.082293    33B3u    0.083668     8B2u    0.083991  
       8B1u    0.083991     8B2g    0.085687     8B1g    0.085687  
       9B2u    0.087359     9B1u    0.087359     9B2g    0.088984  
       9B1g    0.088984    35Ag     0.090122    10B2u    0.090540  
      10B1u    0.090540    10B2g    0.092004    10B1g    0.092004  
      11B1u    0.093356    11B2u    0.093356    11B2g    0.094574  
      11B1g    0.094574    12B2u    0.095641    12B1u    0.095641  
      12B2g    0.096541    12B1g    0.096541    34B3u    0.096786  
      13B2u    0.097260    13B1u    0.097260    13B2g    0.097787  
      13B1g    0.097787    14B2u    0.098111    14B1u    0.098111  
      36Ag     0.103602    35B3u    0.110500    37Ag     0.117401  
      36B3u    0.124209    38Ag     0.130818    37B3u    0.137104  
      39Ag     0.142938    38B3u    0.148182    40Ag     0.152700  
      39B3u    0.156369    41Ag     0.159078    40B3u    0.160744  
      42Ag     0.395873    41B3u    0.396320    43Ag     0.397073  
      42B3u    0.398135    44Ag     0.399505    43B3u    0.401180  
      45Ag     0.403151    44B3u    0.405406    46Ag     0.407926  
      45B3u    0.410692    47Ag     0.413679    46B3u    0.416861  
      48Ag     0.420210    47B3u    0.423697    49Ag     0.427291  
      48B3u    0.430962    50Ag     0.434677    49B3u    0.438403  
      51Ag     0.442100    15B1u    0.442643    15B2u    0.442643  
      14B2g    0.442969    14B1g    0.442969    16B2u    0.443522  
      16B1u    0.443522    15B1g    0.444304    15B2g    0.444304  
      17B1u    0.445316    17B2u    0.445316    50B3u    0.445725  
      16B1g    0.446559    16B2g    0.446559    18B2u    0.448031  
      18B1u    0.448031    52Ag     0.449228    17B1g    0.449732  
      17B2g    0.449732    19B2u    0.451658    19B1u    0.451658  
      51B3u    0.452550    18B2g    0.453805    18B1g    0.453805  
      53Ag     0.455615    20B1u    0.456164    20B2u    0.456164  
      52B3u    0.458336    19B1g    0.458725    19B2g    0.458725  
      54Ag     0.460602    21B1u    0.461471    21B2u    0.461471  
      53B3u    0.462266    55Ag     0.464309    54B3u    0.464338  
      20B2g    0.464382    20B1g    0.464382    22B1u    0.467431  
      22B2u    0.467431    21B1g    0.470586    21B2g    0.470586  
      23B1u    0.473807    23B2u    0.473807    22B2g    0.477047  
      22B1g    0.477047    24B1u    0.480254    24B2u    0.480254  
      23B2g    0.483370    23B1g    0.483370    25B1u    0.486333  
      25B2u    0.486333    24B1g    0.489078    24B2g    0.489078  
      26B2u    0.491539    26B1u    0.491539    25B2g    0.493657  
      25B1g    0.493657    27B1u    0.495373    27B2u    0.495373  
      26B1g    0.496640    26B2g    0.496640    28B1u    0.497421  
      28B2u    0.497421    56Ag     0.523478    55B3u    0.524598  
      57Ag     0.526398    56B3u    0.528787    58Ag     0.531677  
      57B3u    0.534993    59Ag     0.538679    58B3u    0.542700  
      60Ag     0.547039    59B3u    0.551697    61Ag     0.556687  
      60B3u    0.562032    62Ag     0.567763    61B3u    0.573912  
      63Ag     0.580513    62B3u    0.587588    64Ag     0.595139  
      63B3u    0.603141    65Ag     0.611519    64B3u    0.620137  
      66Ag     0.628784    65B3u    0.637164    67Ag     0.644902  
      66B3u    0.651572    68Ag     0.656739    67B3u    0.660020  

    Final Occupation by Irrep:
             Ag   B1g   B2g   B3g    Au   B1u   B2u   B3u 
    DOCC [    28,    0,    0,    0,    0,    0,    0,   26 ]

  Energy converged.

  @RHF Final Energy:  -393.30949329218606

   => Energetics <=

    Nuclear Repulsion Energy =            146.8889292906856952
    One-Electron Energy =                -809.9048566061296697
    Two-Electron Energy =                 269.7064340232577706
    DFT Exchange-Correlation Energy =       0.0000000000000000
    Empirical Dispersion Energy =           0.0000000000000000
    PCM Polarization Energy =               0.0000000000000000
    EFP Energy =                            0.0000000000000000
    Total Energy =                       -393.3094932921861755


  Saving occupied orbitals to File 180.

*** tstop() called on chemistry.org at Mon Jan  8 20:18:06 2018
Module time:
	user time   =      11.66 seconds =       0.19 minutes
	system time =       1.55 seconds =       0.03 minutes
	total time  =         13 seconds =       0.22 minutes
Total time:
	user time   =      11.66 seconds =       0.19 minutes
	system time =       1.55 seconds =       0.03 minutes
	total time  =         13 seconds =       0.22 minutes


Properties will be evaluated at   0.000000,   0.000000,   0.000000 Bohr

Properties computed using the SCF density matrix

  Nuclear Dipole Moment: (a.u.)
     X:    -0.0000      Y:     0.0000      Z:     0.0000

  Electronic Dipole Moment: (a.u.)
     X:     0.0000      Y:     0.0000      Z:     0.0000

  Dipole Moment: (a.u.)
     X:    -0.0000      Y:     0.0000      Z:     0.0000     Total:     0.0000

  Dipole Moment: (Debye)
     X:    -0.0000      Y:     0.0000      Z:     0.0000     Total:     0.0000

 MINTS: Wrapper to libmints.
   by Justin Turney

   Calculation information:
      Number of atoms:                  27
      Number of AO shells:             135
      Number of SO shells:              70
      Number of primitives:            378
      Number of atomic orbitals:       243
      Number of basis functions:       243

      Number of irreps:                  8
      Integral cutoff                 0.00e+00
      Number of functions per irrep: [  68   26   26    0    0   28   28   67 ]

 OEINTS: Overlap, kinetic, potential, dipole, and quadrupole integrals
         stored in file 35.

      Computing two-electron integrals...done
      Computed 55597359 non-zero two-electron integrals.
        Stored in file 33.


*** tstart() called on chemistry.org
*** at Mon Jan  8 20:19:30 2018


	Wfn Parameters:
	--------------------
	Wavefunction         = CCSD_T
	Number of irreps     = 8
	Number of MOs        = 243
	Number of active MOs = 216
	AO-Basis             = NONE
	Semicanonical        = false
	Reference            = RHF
	Print Level          = 1

	IRREP	# MOs	# FZDC	# DOCC	# SOCC	# VIRT	# FZVR
	-----	-----	------	------	------	------	------
	 Ag	   68	    14	    14	    0	    40	    0
	 B1g	   26	    0	    0	    0	    26	    0
	 B2g	   26	    0	    0	    0	    26	    0
	 B3g	   0	    0	    0	    0	    0	    0
	 Au	   0	    0	    0	    0	    0	    0
	 B1u	   28	    0	    0	    0	    28	    0
	 B2u	   28	    0	    0	    0	    28	    0
	 B3u	   67	    13	    13	    0	    41	    0
	Transforming integrals...
	IWL integrals will be deleted.
	(OO|OO)...
	Presorting SO-basis two-electron integrals.
	Sorting File: SO Ints (nn|nn) nbuckets = 1
	Transforming the one-electron integrals and constructing Fock matrices
	Starting first half-transformation.
	Sorting half-transformed integrals.
	First half integral transformation complete.
	Starting second half-transformation.
	Two-electron integral transformation complete.
	(OO|OV)...
	Starting second half-transformation.
	Two-electron integral transformation complete.
	(OO|VV)...
	Starting second half-transformation.
	Two-electron integral transformation complete.
	(OV|OO)...
	Starting first half-transformation.
	Sorting half-transformed integrals.
	First half integral transformation complete.
	Starting second half-transformation.
	Two-electron integral transformation complete.
	(OV|OV)...
	Starting second half-transformation.
	Two-electron integral transformation complete.
	(OV|VV)...
	Starting second half-transformation.
	Two-electron integral transformation complete.
	(VV|OO)...
	Starting first half-transformation.
	Sorting half-transformed integrals.
	First half integral transformation complete.
	Starting second half-transformation.
	Two-electron integral transformation complete.
	(VV|OV)...
	Starting second half-transformation.
	Two-electron integral transformation complete.
	(VV|VV)...
	Starting second half-transformation.
	Two-electron integral transformation complete.
	Frozen core energy     =   -477.62870820667018

	Size of irrep 0 of <ab|cd> integrals:     38.452 (MW) /    307.619 (MB)
	Size of irrep 1 of <ab|cd> integrals:     19.149 (MW) /    153.195 (MB)
	Size of irrep 2 of <ab|cd> integrals:     19.149 (MW) /    153.195 (MB)
	Size of irrep 3 of <ab|cd> integrals:      8.526 (MW) /     68.211 (MB)
	Size of irrep 4 of <ab|cd> integrals:      8.480 (MW) /     67.838 (MB)
	Size of irrep 5 of <ab|cd> integrals:     19.114 (MW) /    152.915 (MB)
	Size of irrep 6 of <ab|cd> integrals:     19.114 (MW) /    152.915 (MB)
	Size of irrep 7 of <ab|cd> integrals:     38.341 (MW) /    306.727 (MB)
	Total:                                   170.327 (MW) /   1362.615 (MB)

	Size of irrep 0 of <ia|bc> integrals:      6.778 (MW) /     54.222 (MB)
	Size of irrep 1 of <ia|bc> integrals:      3.186 (MW) /     25.486 (MB)
	Size of irrep 2 of <ia|bc> integrals:      3.186 (MW) /     25.486 (MB)
	Size of irrep 3 of <ia|bc> integrals:      0.000 (MW) /      0.000 (MB)
	Size of irrep 4 of <ia|bc> integrals:      0.000 (MW) /      0.000 (MB)
	Size of irrep 5 of <ia|bc> integrals:      3.192 (MW) /     25.532 (MB)
	Size of irrep 6 of <ia|bc> integrals:      3.192 (MW) /     25.532 (MB)
	Size of irrep 7 of <ia|bc> integrals:      6.774 (MW) /     54.192 (MB)
	Total:                                    26.306 (MW) /    210.451 (MB)

	Size of irrep 0 of tijab amplitudes:       2.263 (MW) /     18.107 (MB)
	Size of irrep 1 of tijab amplitudes:       0.000 (MW) /      0.000 (MB)
	Size of irrep 2 of tijab amplitudes:       0.000 (MW) /      0.000 (MB)
	Size of irrep 3 of tijab amplitudes:       0.000 (MW) /      0.000 (MB)
	Size of irrep 4 of tijab amplitudes:       0.000 (MW) /      0.000 (MB)
	Size of irrep 5 of tijab amplitudes:       0.000 (MW) /      0.000 (MB)
	Size of irrep 6 of tijab amplitudes:       0.000 (MW) /      0.000 (MB)
	Size of irrep 7 of tijab amplitudes:       2.254 (MW) /     18.031 (MB)
	Total:                                     4.517 (MW) /     36.138 (MB)

	Nuclear Rep. energy          =    146.88892929068572
	SCF energy                   =   -393.30949329218606
	One-electron energy          =   -108.87095598610037
	Two-electron energy          =     46.30124160989062
	Reference energy             =   -393.30949329219419

*** tstop() called on chemistry.org at Mon Jan  8 20:20:03 2018
Module time:
	user time   =      21.34 seconds =       0.36 minutes
	system time =      11.41 seconds =       0.19 minutes
	total time  =         33 seconds =       0.55 minutes
Total time:
	user time   =     115.88 seconds =       1.93 minutes
	system time =      13.75 seconds =       0.23 minutes
	total time  =        130 seconds =       2.17 minutes

*** tstart() called on chemistry.org
*** at Mon Jan  8 20:20:03 2018

            **************************
            *                        *
            *        CCENERGY        *
            *                        *
            **************************

    Nuclear Rep. energy (wfn)     =  146.888929290685724
    SCF energy          (wfn)     = -393.309493292186062
    Reference energy    (file100) = -393.309493292194190

    Input parameters:
    -----------------
    Wave function   =     CCSD_T
    Reference wfn   =     RHF
    Brueckner       =     No
    Memory (Mbytes) =     24000.0
    Maxiter         =     50
    R_Convergence   =     1.0e-07
    E_Convergence   =     1.0e-10
    Restart         =     Yes
    DIIS            =     Yes
    AO Basis        =     NONE
    ABCD            =     NEW
    Cache Level     =     2
    Cache Type      =     LOW
    Print Level     =     1
    Num. of threads =     1
    # Amps to Print =     10
    Print MP2 Amps? =     No
    Analyze T2 Amps =     No
    Print Pair Ener =     No
    Local CC        =     No
    SCS-MP2         =     False
    SCSN-MP2        =     False
    SCS-CCSD        =     False

MP2 correlation energy -0.6403353122773686
                Solving CC Amplitude Equations
                ------------------------------
  Iter             Energy              RMS        T1Diag      D1Diag    New D1Diag    D2Diag
  ----     ---------------------    ---------   ----------  ----------  ----------   --------
     0        -0.640335312277334    0.000e+00    0.000000    0.000000    0.000000    0.168069
     1        -0.943663112978023    4.325e-01    0.004446    0.006791    0.006791    0.252462
     2        -1.239751055928029    2.260e-01    0.011989    0.018923    0.018923    0.339911
     3        -1.233994169198561    2.056e-02    0.013246    0.021254    0.021254    0.339652
     4        -1.240116167027409    6.131e-03    0.013542    0.021835    0.021835    0.341497
     5        -1.241554991684140    1.268e-03    0.013637    0.022042    0.022042    0.341896
     6        -1.240634937630964    7.961e-04    0.013613    0.022005    0.022005    0.341619
     7        -1.240497795766293    1.039e-04    0.013611    0.022003    0.022003    0.341578
     8        -1.240537894247907    5.941e-05    0.013613    0.022006    0.022006    0.341590
     9        -1.240555868355724    2.063e-05    0.013613    0.022006    0.022006    0.341596
    10        -1.240555501283450    9.898e-06    0.013613    0.022006    0.022006    0.341596
    11        -1.240554909944424    5.781e-06    0.013613    0.022006    0.022006    0.341596
    12        -1.240554933142106    2.107e-06    0.013613    0.022006    0.022006    0.341596
    13        -1.240555030097174    1.098e-06    0.013613    0.022006    0.022006    0.341596
    14        -1.240555051793755    4.100e-07    0.013613    0.022006    0.022006    0.341596
    15        -1.240555054122469    1.744e-07    0.013613    0.022006    0.022006    0.341596
    16        -1.240555043743852    8.767e-08    0.013613    0.022006    0.022006    0.341596
    17        -1.240555041372950    3.083e-08    0.013613    0.022006    0.022006    0.341596
    18        -1.240555039562425    8.315e-09    0.013613    0.022006    0.022006    0.341596
    19        -1.240555038916661    3.946e-09    0.013613    0.022006    0.022006    0.341596
    20        -1.240555038899264    2.284e-09    0.013613    0.022006    0.022006    0.341596
    21        -1.240555039001796    1.277e-09    0.013613    0.022006    0.022006    0.341596

    Iterations converged.


    Largest TIA Amplitudes:
              0  13        -0.0178813102
             14 162        -0.0177422395
              1  14         0.0175192091
             15 163         0.0172256920
              2  15         0.0168744027
             16 164         0.0164778526
              3  16         0.0160476482
             17 165         0.0155937798
              4  17         0.0151241491
             18 166         0.0146443654

    Largest TIjAb Amplitudes:
     20  20  46  46        -0.0122004590
     20  20  72  72        -0.0122004590
     20  20   6   6        -0.0115943365
     14  14   0   0        -0.0110470527
      1   1 149 149        -0.0110137575
      0   0 148 148        -0.0109864691
     15  15   1   1        -0.0109286105
      2   2 150 150        -0.0108062424
     16  16   2   2        -0.0106545704
     13  13 105 105        -0.0106278179

    SCF energy       (wfn)                    = -393.309493292186062
    Reference energy (file100)                = -393.309493292194190

    Opposite-spin MP2 correlation energy      =   -0.632508458618116
    Same-spin MP2 correlation energy          =   -0.007826853659217
    MP2 correlation energy                    =   -0.640335312277369
      * MP2 total energy                      = -393.949828604471577

    Opposite-spin CCSD correlation energy     =   -1.232174037930107
    Same-spin CCSD correlation energy         =   -0.008381006654220
    CCSD correlation energy                   =   -1.240555039001796
      * CCSD total energy                     = -394.550048331195967


*** tstop() called on chemistry.org at Mon Jan  8 20:23:02 2018
Module time:
	user time   =      83.66 seconds =       1.39 minutes
	system time =      40.98 seconds =       0.68 minutes
	total time  =        179 seconds =       2.98 minutes
Total time:
	user time   =     199.54 seconds =       3.33 minutes
	system time =      54.73 seconds =       0.91 minutes
	total time  =        309 seconds =       5.15 minutes

*** tstart() called on chemistry.org
*** at Mon Jan  8 20:23:02 2018

            **************************
            *                        *
            *        CCTRIPLES       *
            *                        *
            **************************


    Wave function   =    CCSD_T
    Reference wfn   =      RHF

    Nuclear Rep. energy (wfn)                =  146.888929290685724
    SCF energy          (wfn)                = -393.309493292186062
    Reference energy    (file100)            = -393.309493292194190
    CCSD energy         (file100)            =   -1.240555039001796
    Total CCSD energy   (file100)            = -394.550048331195967

    Number of ijk index combinations:             3654
    Memory available in words        :      3000000000
    ~Words needed per explicit thread:          275684
    Number of threads for explicit ijk threading:    1

    (T) energy                                =   -0.001718756835464
      * CCSD(T) total energy                  = -394.551767088031454


*** tstop() called on chemistry.org at Mon Jan  8 20:29:57 2018
Module time:
	user time   =     331.12 seconds =       5.52 minutes
	system time =      83.72 seconds =       1.40 minutes
	total time  =        415 seconds =       6.92 minutes
Total time:
	user time   =     530.66 seconds =       8.84 minutes
	system time =     138.45 seconds =       2.31 minutes
	total time  =        724 seconds =      12.07 minutes

*** Psi4 exiting successfully. Buy a developer a beer!
