    -----------------------------------------------------------------------
          Psi4: An Open-Source Ab Initio Electronic Structure Package
                              Psi4 1.0.0 Driver

                          Git: Rev {master} 6a9a71b dirty

    J. M. Turney, A. C. Simmonett, R. M. Parrish, E. G. Hohenstein,
    F. A. Evangelista, J. T. Fermann, B. J. Mintz, L. A. Burns, J. J. Wilke,
    M. L. Abrams, N. J. Russ, M. L. Leininger, C. L. Janssen, E. T. Seidl,
    W. D. Allen, H. F. Schaefer, R. A. King, E. F. Valeev, C. D. Sherrill,
    and T. D. Crawford, WIREs Comput. Mol. Sci. 2, 556-565 (2012)
    (doi: 10.1002/wcms.93)

                         Additional Contributions by
    A. E. DePrince, U. Bozkaya, A. Yu. Sokolov, D. G. A. Smith, R. Di Remigio,
    R. M. Richard, J. F. Gonthier, H. R. McAlexander, M. Saitow, and
    B. P. Pritchard
    -----------------------------------------------------------------------


    Psi4 started on: Mon Jan  8 20:08:28 2018

    Process ID:  32443
    PSI4DATADIR: /home/yhliu/psi4conda/share/psi4
    Memory level set to 256.000 MB

  ==> Input File <==

--------------------------------------------------------------------------
memory 24 Gb
molecule beN {
0 1
Be   0.0    0.0 0.0
Be   4.5    0.0 0.0
Be   9.0    0.0 0.0
Be  13.5    0.0 0.0
Be  18.0    0.0 0.0
Be  22.5    0.0 0.0
Be  27.0    0.0 0.0
Be  31.5    0.0 0.0
Be  36.0    0.0 0.0
Be  40.5    0.0 0.0
Be  45.0    0.0 0.0
Be  49.5    0.0 0.0
Be  54.0    0.0 0.0
Be  58.5    0.0 0.0
Be  63.0    0.0 0.0
Be  67.5    0.0 0.0
Be  72.0    0.0 0.0
Be  76.5    0.0 0.0
Be  81.0    0.0 0.0
Be  85.5    0.0 0.0
Be  90.0    0.0 0.0
Be  94.5    0.0 0.0
Be  99.0    0.0 0.0
Be 103.5    0.0 0.0
Be 108.0    0.0 0.0
Be 112.5    0.0 0.0
units angstrom    
}

set basis 6-31g
set freeze_core true
set PRINT_BASIS True
set PUREAM False
set E_CONVERGENCE 1e-10
energy('ccsd(t)')
--------------------------------------------------------------------------
/home/yhliu/psi4conda/lib/python2.7/site-packages/v2rdm_casscf/v2rdm_casscf.so loaded.

  Memory set to  24.000 GiB by Python script.

*** tstart() called on chemistry.org
*** at Mon Jan  8 20:08:29 2018


         ---------------------------------------------------------
                                   SCF
            by Justin Turney, Rob Parrish, and Andy Simmonett
                              RHF Reference
                        1 Threads,  24000 MiB Core
         ---------------------------------------------------------

  ==> Geometry <==

    Molecular point group: d2h
    Full point group: D_inf_h

    Geometry (in Angstrom), charge = 0, multiplicity = 1:

       Center              X                  Y                   Z               Mass       
    ------------   -----------------  -----------------  -----------------  -----------------
          BE        -56.250000000000    -0.000000000000     0.000000000000     9.012182201000
          BE        -51.750000000000    -0.000000000000     0.000000000000     9.012182201000
          BE        -47.250000000000    -0.000000000000     0.000000000000     9.012182201000
          BE        -42.750000000000    -0.000000000000     0.000000000000     9.012182201000
          BE        -38.250000000000    -0.000000000000     0.000000000000     9.012182201000
          BE        -33.750000000000    -0.000000000000     0.000000000000     9.012182201000
          BE        -29.250000000000    -0.000000000000     0.000000000000     9.012182201000
          BE        -24.750000000000    -0.000000000000     0.000000000000     9.012182201000
          BE        -20.250000000000    -0.000000000000     0.000000000000     9.012182201000
          BE        -15.750000000000    -0.000000000000     0.000000000000     9.012182201000
          BE        -11.250000000000    -0.000000000000     0.000000000000     9.012182201000
          BE         -6.750000000000    -0.000000000000     0.000000000000     9.012182201000
          BE         -2.250000000000    -0.000000000000     0.000000000000     9.012182201000
          BE          2.250000000000     0.000000000000     0.000000000000     9.012182201000
          BE          6.750000000000     0.000000000000     0.000000000000     9.012182201000
          BE         11.250000000000     0.000000000000     0.000000000000     9.012182201000
          BE         15.750000000000     0.000000000000     0.000000000000     9.012182201000
          BE         20.250000000000     0.000000000000     0.000000000000     9.012182201000
          BE         24.750000000000     0.000000000000     0.000000000000     9.012182201000
          BE         29.250000000000     0.000000000000     0.000000000000     9.012182201000
          BE         33.750000000000     0.000000000000     0.000000000000     9.012182201000
          BE         38.250000000000     0.000000000000     0.000000000000     9.012182201000
          BE         42.750000000000     0.000000000000     0.000000000000     9.012182201000
          BE         47.250000000000     0.000000000000     0.000000000000     9.012182201000
          BE         51.750000000000     0.000000000000     0.000000000000     9.012182201000
          BE         56.250000000000     0.000000000000     0.000000000000     9.012182201000

  Running in d2h symmetry.

  Rotational constants: A = ************  B =      0.00006  C =      0.00006 [cm^-1]
  Rotational constants: A = ************  B =      1.89350  C =      1.89350 [MHz]
  Nuclear repulsion =  139.636765499891254

  Charge       = 0
  Multiplicity = 1
  Electrons    = 104
  Nalpha       = 52
  Nbeta        = 52

  ==> Algorithm <==

  SCF Algorithm Type is PK.
  DIIS enabled.
  MOM disabled.
  Fractional occupation disabled.
  Guess Type is SAD.
  Energy threshold   = 1.00e-10
  Density threshold  = 1.00e-08
  Integral threshold = 0.00e+00

  ==> Primary Basis <==

  Basis Set: 6-31G
    Number of shells: 130
    Number of basis function: 234
    Number of Cartesian functions: 234
    Spherical Harmonics?: false
    Max angular momentum: 1

  -AO BASIS SET INFORMATION:
    Name                   = 6-31G
    Total number of shells = 130
    Number of primitives   = 364
    Number of AO           = 234
    Number of SO           = 234
    Maximum AM             = 1
    Spherical Harmonics    = FALSE

  -Contraction Scheme:
    Atom   Type   All Primitives // Shells:
   ------ ------ --------------------------
       1    BE     10s 4p // 3s 2p 
       2    BE     10s 4p // 3s 2p 
       3    BE     10s 4p // 3s 2p 
       4    BE     10s 4p // 3s 2p 
       5    BE     10s 4p // 3s 2p 
       6    BE     10s 4p // 3s 2p 
       7    BE     10s 4p // 3s 2p 
       8    BE     10s 4p // 3s 2p 
       9    BE     10s 4p // 3s 2p 
      10    BE     10s 4p // 3s 2p 
      11    BE     10s 4p // 3s 2p 
      12    BE     10s 4p // 3s 2p 
      13    BE     10s 4p // 3s 2p 
      14    BE     10s 4p // 3s 2p 
      15    BE     10s 4p // 3s 2p 
      16    BE     10s 4p // 3s 2p 
      17    BE     10s 4p // 3s 2p 
      18    BE     10s 4p // 3s 2p 
      19    BE     10s 4p // 3s 2p 
      20    BE     10s 4p // 3s 2p 
      21    BE     10s 4p // 3s 2p 
      22    BE     10s 4p // 3s 2p 
      23    BE     10s 4p // 3s 2p 
      24    BE     10s 4p // 3s 2p 
      25    BE     10s 4p // 3s 2p 
      26    BE     10s 4p // 3s 2p 

  ==> AO Basis Functions <==

    [ 6-31G ]
    cartesian
    ****
   BE   1
    S   6 1.00
                      1264.58570000           0.00194480
                       189.93681000           0.01483510
                        43.15908900           0.07209060
                        12.09866300           0.23715420
                         3.80632320           0.46919870
                         1.27289030           0.35652020
    S   3 1.00
                         3.19646310          -0.11264870
                         0.74781330          -0.22950640
                         0.21996630           1.18691670
    P   3 1.00
                         3.19646310           0.05598020
                         0.74781330           0.26155060
                         0.21996630           0.79397230
    S   1 1.00
                         0.08230990           1.00000000
    P   1 1.00
                         0.08230990           1.00000000
    ****
   BE   2
    S   6 1.00
                      1264.58570000           0.00194480
                       189.93681000           0.01483510
                        43.15908900           0.07209060
                        12.09866300           0.23715420
                         3.80632320           0.46919870
                         1.27289030           0.35652020
    S   3 1.00
                         3.19646310          -0.11264870
                         0.74781330          -0.22950640
                         0.21996630           1.18691670
    P   3 1.00
                         3.19646310           0.05598020
                         0.74781330           0.26155060
                         0.21996630           0.79397230
    S   1 1.00
                         0.08230990           1.00000000
    P   1 1.00
                         0.08230990           1.00000000
    ****
   BE   3
    S   6 1.00
                      1264.58570000           0.00194480
                       189.93681000           0.01483510
                        43.15908900           0.07209060
                        12.09866300           0.23715420
                         3.80632320           0.46919870
                         1.27289030           0.35652020
    S   3 1.00
                         3.19646310          -0.11264870
                         0.74781330          -0.22950640
                         0.21996630           1.18691670
    P   3 1.00
                         3.19646310           0.05598020
                         0.74781330           0.26155060
                         0.21996630           0.79397230
    S   1 1.00
                         0.08230990           1.00000000
    P   1 1.00
                         0.08230990           1.00000000
    ****
   BE   4
    S   6 1.00
                      1264.58570000           0.00194480
                       189.93681000           0.01483510
                        43.15908900           0.07209060
                        12.09866300           0.23715420
                         3.80632320           0.46919870
                         1.27289030           0.35652020
    S   3 1.00
                         3.19646310          -0.11264870
                         0.74781330          -0.22950640
                         0.21996630           1.18691670
    P   3 1.00
                         3.19646310           0.05598020
                         0.74781330           0.26155060
                         0.21996630           0.79397230
    S   1 1.00
                         0.08230990           1.00000000
    P   1 1.00
                         0.08230990           1.00000000
    ****
   BE   5
    S   6 1.00
                      1264.58570000           0.00194480
                       189.93681000           0.01483510
                        43.15908900           0.07209060
                        12.09866300           0.23715420
                         3.80632320           0.46919870
                         1.27289030           0.35652020
    S   3 1.00
                         3.19646310          -0.11264870
                         0.74781330          -0.22950640
                         0.21996630           1.18691670
    P   3 1.00
                         3.19646310           0.05598020
                         0.74781330           0.26155060
                         0.21996630           0.79397230
    S   1 1.00
                         0.08230990           1.00000000
    P   1 1.00
                         0.08230990           1.00000000
    ****
   BE   6
    S   6 1.00
                      1264.58570000           0.00194480
                       189.93681000           0.01483510
                        43.15908900           0.07209060
                        12.09866300           0.23715420
                         3.80632320           0.46919870
                         1.27289030           0.35652020
    S   3 1.00
                         3.19646310          -0.11264870
                         0.74781330          -0.22950640
                         0.21996630           1.18691670
    P   3 1.00
                         3.19646310           0.05598020
                         0.74781330           0.26155060
                         0.21996630           0.79397230
    S   1 1.00
                         0.08230990           1.00000000
    P   1 1.00
                         0.08230990           1.00000000
    ****
   BE   7
    S   6 1.00
                      1264.58570000           0.00194480
                       189.93681000           0.01483510
                        43.15908900           0.07209060
                        12.09866300           0.23715420
                         3.80632320           0.46919870
                         1.27289030           0.35652020
    S   3 1.00
                         3.19646310          -0.11264870
                         0.74781330          -0.22950640
                         0.21996630           1.18691670
    P   3 1.00
                         3.19646310           0.05598020
                         0.74781330           0.26155060
                         0.21996630           0.79397230
    S   1 1.00
                         0.08230990           1.00000000
    P   1 1.00
                         0.08230990           1.00000000
    ****
   BE   8
    S   6 1.00
                      1264.58570000           0.00194480
                       189.93681000           0.01483510
                        43.15908900           0.07209060
                        12.09866300           0.23715420
                         3.80632320           0.46919870
                         1.27289030           0.35652020
    S   3 1.00
                         3.19646310          -0.11264870
                         0.74781330          -0.22950640
                         0.21996630           1.18691670
    P   3 1.00
                         3.19646310           0.05598020
                         0.74781330           0.26155060
                         0.21996630           0.79397230
    S   1 1.00
                         0.08230990           1.00000000
    P   1 1.00
                         0.08230990           1.00000000
    ****
   BE   9
    S   6 1.00
                      1264.58570000           0.00194480
                       189.93681000           0.01483510
                        43.15908900           0.07209060
                        12.09866300           0.23715420
                         3.80632320           0.46919870
                         1.27289030           0.35652020
    S   3 1.00
                         3.19646310          -0.11264870
                         0.74781330          -0.22950640
                         0.21996630           1.18691670
    P   3 1.00
                         3.19646310           0.05598020
                         0.74781330           0.26155060
                         0.21996630           0.79397230
    S   1 1.00
                         0.08230990           1.00000000
    P   1 1.00
                         0.08230990           1.00000000
    ****
   BE  10
    S   6 1.00
                      1264.58570000           0.00194480
                       189.93681000           0.01483510
                        43.15908900           0.07209060
                        12.09866300           0.23715420
                         3.80632320           0.46919870
                         1.27289030           0.35652020
    S   3 1.00
                         3.19646310          -0.11264870
                         0.74781330          -0.22950640
                         0.21996630           1.18691670
    P   3 1.00
                         3.19646310           0.05598020
                         0.74781330           0.26155060
                         0.21996630           0.79397230
    S   1 1.00
                         0.08230990           1.00000000
    P   1 1.00
                         0.08230990           1.00000000
    ****
   BE  11
    S   6 1.00
                      1264.58570000           0.00194480
                       189.93681000           0.01483510
                        43.15908900           0.07209060
                        12.09866300           0.23715420
                         3.80632320           0.46919870
                         1.27289030           0.35652020
    S   3 1.00
                         3.19646310          -0.11264870
                         0.74781330          -0.22950640
                         0.21996630           1.18691670
    P   3 1.00
                         3.19646310           0.05598020
                         0.74781330           0.26155060
                         0.21996630           0.79397230
    S   1 1.00
                         0.08230990           1.00000000
    P   1 1.00
                         0.08230990           1.00000000
    ****
   BE  12
    S   6 1.00
                      1264.58570000           0.00194480
                       189.93681000           0.01483510
                        43.15908900           0.07209060
                        12.09866300           0.23715420
                         3.80632320           0.46919870
                         1.27289030           0.35652020
    S   3 1.00
                         3.19646310          -0.11264870
                         0.74781330          -0.22950640
                         0.21996630           1.18691670
    P   3 1.00
                         3.19646310           0.05598020
                         0.74781330           0.26155060
                         0.21996630           0.79397230
    S   1 1.00
                         0.08230990           1.00000000
    P   1 1.00
                         0.08230990           1.00000000
    ****
   BE  13
    S   6 1.00
                      1264.58570000           0.00194480
                       189.93681000           0.01483510
                        43.15908900           0.07209060
                        12.09866300           0.23715420
                         3.80632320           0.46919870
                         1.27289030           0.35652020
    S   3 1.00
                         3.19646310          -0.11264870
                         0.74781330          -0.22950640
                         0.21996630           1.18691670
    P   3 1.00
                         3.19646310           0.05598020
                         0.74781330           0.26155060
                         0.21996630           0.79397230
    S   1 1.00
                         0.08230990           1.00000000
    P   1 1.00
                         0.08230990           1.00000000
    ****

  ==> Pre-Iterations <==

   -------------------------------------------------------
    Irrep   Nso     Nmo     Nalpha   Nbeta   Ndocc  Nsocc
   -------------------------------------------------------
     Ag        65      65       0       0       0       0
     B1g       26      26       0       0       0       0
     B2g       26      26       0       0       0       0
     B3g        0       0       0       0       0       0
     Au         0       0       0       0       0       0
     B1u       26      26       0       0       0       0
     B2u       26      26       0       0       0       0
     B3u       65      65       0       0       0       0
   -------------------------------------------------------
    Total     234     234      52      52      52       0
   -------------------------------------------------------

  ==> Integral Setup <==

  Using in-core PK algorithm.
   Calculation information:
      Number of atoms:                  26
      Number of AO shells:             130
      Number of primitives:            364
      Number of atomic orbitals:       234
      Number of basis functions:       234

      Integral cutoff                 1.00e-12
      Number of threads:                 1

  Performing in-core PK
  Using 756002520 doubles for integral storage.
  We computed 858672 shell quartets total.
  Whereas there are 36256870 unique shell quartets.
  ==> DiskJK: Disk-Based J/K Matrices <==

    J tasked:                  Yes
    K tasked:                  Yes
    wK tasked:                  No
    Memory (MB):             17166
    Schwarz Cutoff:          1E-12

    OpenMP threads:              1
  Minimum eigenvalue in the overlap matrix is 1.0041422420E-01.
  Using Symmetric Orthogonalization.
  SCF Guess: Superposition of Atomic Densities via on-the-fly atomic UHF.

  ==> Iterations <==

                        Total Energy        Delta E     RMS |[F,P]|

   @RHF iter   0:  -378.75846696534654   -3.78758e+02   7.90336e-04 
   @RHF iter   1:  -378.74124138336492    1.72256e-02   1.75541e-04 
   @RHF iter   2:  -378.74232386193364   -1.08248e-03   5.80006e-05 DIIS
   @RHF iter   3:  -378.74246552564682   -1.41664e-04   2.87038e-06 DIIS
   @RHF iter   4:  -378.74246577553197   -2.49885e-07   1.18614e-07 DIIS
   @RHF iter   5:  -378.74246577582699   -2.95017e-10   2.30323e-08 DIIS
   @RHF iter   6:  -378.74246577583995   -1.29603e-11   2.83494e-09 DIIS

  ==> Post-Iterations <==

    Orbital Energies (a.u.)
    -----------------------

    Doubly Occupied:                                                      

       1B3u   -4.708044     1Ag    -4.708044     2B3u   -4.707928  
       2Ag    -4.707928     3Ag    -4.707887     3B3u   -4.707887  
       4Ag    -4.707871     4B3u   -4.707871     5Ag    -4.707863  
       5B3u   -4.707863     6B3u   -4.707859     6Ag    -4.707859  
       7B3u   -4.707857     7Ag    -4.707857     8B3u   -4.707856  
       8Ag    -4.707856     9B3u   -4.707856     9Ag    -4.707855  
      10B3u   -4.707855    10Ag    -4.707854    11B3u   -4.707853  
      11Ag    -4.707852    12B3u   -4.707852    12Ag    -4.707851  
      13Ag    -4.707374    13B3u   -4.707374    14Ag    -0.317471  
      14B3u   -0.317205    15Ag    -0.316752    15B3u   -0.316114  
      16Ag    -0.315295    16B3u   -0.314301    17Ag    -0.313137  
      17B3u   -0.311813    18Ag    -0.310340    18B3u   -0.308729  
      19Ag    -0.306996    19B3u   -0.305158    20Ag    -0.303234  
      20B3u   -0.301245    21Ag    -0.299216    21B3u   -0.297174  
      22Ag    -0.295148    22B3u   -0.293169    23Ag    -0.291268  
      23B3u   -0.289481    24Ag    -0.287840    24B3u   -0.286379  
      25Ag    -0.285129    25B3u   -0.284119    26Ag    -0.283373  
      26B3u   -0.282911  

    Virtual:                                                              

      27Ag     0.037686    27B3u    0.038666    28Ag     0.040300  
      28B3u    0.042573    29Ag     0.045462    29B3u    0.048939  
      30Ag     0.052973    30B3u    0.057527    31Ag     0.062565  
      31B3u    0.068046     1B2u    0.068163     1B1u    0.068163  
       1B1g    0.068423     1B2g    0.068423     2B2u    0.068863  
       2B1u    0.068863     2B1g    0.069480     2B2g    0.069480  
       3B1u    0.070270     3B2u    0.070270     3B1g    0.071223  
       3B2g    0.071223     4B2u    0.072330     4B1u    0.072330  
       4B1g    0.073579     4B2g    0.073579    32Ag     0.073930  
       5B1u    0.074957     5B2u    0.074957     5B2g    0.076448  
       5B1g    0.076448     6B1u    0.078036     6B2u    0.078036  
       6B1g    0.079699     6B2g    0.079699    32B3u    0.080172  
       7B2u    0.081419     7B1u    0.081419     7B2g    0.083172  
       7B1g    0.083172     8B1u    0.084934     8B2u    0.084934  
       8B2g    0.086682     8B1g    0.086682    33Ag     0.086724  
       9B2u    0.088389     9B1u    0.088389     9B1g    0.090030  
       9B2g    0.090030    10B2u    0.091581    10B1u    0.091581  
      10B2g    0.093016    10B1g    0.093016    33B3u    0.093532  
      11B2u    0.094314    11B1u    0.094314    11B1g    0.095454  
      11B2g    0.095454    12B1u    0.096418    12B2u    0.096418  
      12B2g    0.097189    12B1g    0.097189    13B2u    0.097754  
      13B1u    0.097754    13B2g    0.098102    13B1g    0.098102  
      34Ag     0.100536    34B3u    0.107664    35Ag     0.114831  
      35B3u    0.121939    36Ag     0.128872    36B3u    0.135499  
      37Ag     0.141677    37B3u    0.147253    38Ag     0.152076  
      38B3u    0.156003    39Ag     0.158910    39B3u    0.160701  
      40Ag     0.395885    40B3u    0.396366    41Ag     0.397178  
      41B3u    0.398324    42Ag     0.399801    42B3u    0.401605  
      43Ag     0.403725    43B3u    0.406145    44Ag     0.408844  
      44B3u    0.411799    45Ag     0.414981    45B3u    0.418359  
      46Ag     0.421903    46B3u    0.425579    47Ag     0.429353  
      47B3u    0.433191    48Ag     0.437054    48B3u    0.440903  
      14B1u    0.442651    14B2u    0.442651    14B1g    0.443001  
      14B2g    0.443001    15B2u    0.443597    15B1u    0.443597  
      15B1g    0.444438    15B2g    0.444438    49Ag     0.444691  
      16B1u    0.445528    16B2u    0.445528    16B1g    0.446865  
      16B2g    0.446865    49B3u    0.448364    17B2u    0.448449  
      17B1u    0.448449    17B1g    0.450279    17B2g    0.450279  
      50Ag     0.451860    18B1u    0.452349    18B2u    0.452349  
      18B1g    0.454655    18B2g    0.454655    50B3u    0.455101  
      19B1u    0.457184    19B2u    0.457184    51Ag     0.457989  
      19B1g    0.459924    19B2g    0.459924    51B3u    0.460408  
      52Ag     0.462197    20B1u    0.462854    20B2u    0.462854  
      52B3u    0.464306    53Ag     0.464341    20B2g    0.465949  
      20B1g    0.465949    21B2u    0.469174    21B1u    0.469174  
      21B2g    0.472490    21B1g    0.472490    22B2u    0.475848  
      22B1u    0.475848    22B1g    0.479193    22B2g    0.479193  
      23B1u    0.482460    23B2u    0.482460    23B1g    0.485583  
      23B2g    0.485583    24B2u    0.488489    24B1u    0.488489  
      24B1g    0.491107    24B2g    0.491107    25B2u    0.493366  
      25B1u    0.493366    25B1g    0.495203    25B2g    0.495203  
      26B1u    0.496562    26B2u    0.496562    26B1g    0.497401  
      26B2g    0.497401    53B3u    0.523507    54Ag     0.524712  
      54B3u    0.526642    55Ag     0.529197    55B3u    0.532279  
      56Ag     0.535806    56B3u    0.539723    57Ag     0.543994  
      57B3u    0.548608    58Ag     0.553570    58B3u    0.558898  
      59Ag     0.564623    59B3u    0.570780    60Ag     0.577408  
      60B3u    0.584536    61Ag     0.592181    61B3u    0.600327  
      62Ag     0.608913    62B3u    0.617810    63Ag     0.626806  
      63B3u    0.635595    64Ag     0.643774    64B3u    0.650874  
      65Ag     0.656405    65B3u    0.659932  

    Final Occupation by Irrep:
             Ag   B1g   B2g   B3g    Au   B1u   B2u   B3u 
    DOCC [    26,    0,    0,    0,    0,    0,    0,   26 ]

  Energy converged.

  @RHF Final Energy:  -378.74246577583995

   => Energetics <=

    Nuclear Repulsion Energy =            139.6367654998912542
    One-Electron Energy =                -776.2846559023581676
    Two-Electron Energy =                 257.9054246266269956
    DFT Exchange-Correlation Energy =       0.0000000000000000
    Empirical Dispersion Energy =           0.0000000000000000
    PCM Polarization Energy =               0.0000000000000000
    EFP Energy =                            0.0000000000000000
    Total Energy =                       -378.7424657758399462


  Saving occupied orbitals to File 180.

*** tstop() called on chemistry.org at Mon Jan  8 20:08:40 2018
Module time:
	user time   =      10.27 seconds =       0.17 minutes
	system time =       1.33 seconds =       0.02 minutes
	total time  =         11 seconds =       0.18 minutes
Total time:
	user time   =      10.27 seconds =       0.17 minutes
	system time =       1.33 seconds =       0.02 minutes
	total time  =         11 seconds =       0.18 minutes


Properties will be evaluated at   0.000000,   0.000000,   0.000000 Bohr

Properties computed using the SCF density matrix

  Nuclear Dipole Moment: (a.u.)
     X:    -0.0000      Y:     0.0000      Z:     0.0000

  Electronic Dipole Moment: (a.u.)
     X:     0.0000      Y:     0.0000      Z:     0.0000

  Dipole Moment: (a.u.)
     X:    -0.0000      Y:     0.0000      Z:     0.0000     Total:     0.0000

  Dipole Moment: (Debye)
     X:    -0.0000      Y:     0.0000      Z:     0.0000     Total:     0.0000

 MINTS: Wrapper to libmints.
   by Justin Turney

   Calculation information:
      Number of atoms:                  26
      Number of AO shells:             130
      Number of SO shells:              65
      Number of primitives:            364
      Number of atomic orbitals:       234
      Number of basis functions:       234

      Number of irreps:                  8
      Integral cutoff                 0.00e+00
      Number of functions per irrep: [  65   26   26    0    0   26   26   65 ]

 OEINTS: Overlap, kinetic, potential, dipole, and quadrupole integrals
         stored in file 35.

      Computing two-electron integrals...done
      Computed 49077190 non-zero two-electron integrals.
        Stored in file 33.


*** tstart() called on chemistry.org
*** at Mon Jan  8 20:09:54 2018


	Wfn Parameters:
	--------------------
	Wavefunction         = CCSD_T
	Number of irreps     = 8
	Number of MOs        = 234
	Number of active MOs = 208
	AO-Basis             = NONE
	Semicanonical        = false
	Reference            = RHF
	Print Level          = 1

	IRREP	# MOs	# FZDC	# DOCC	# SOCC	# VIRT	# FZVR
	-----	-----	------	------	------	------	------
	 Ag	   65	    13	    13	    0	    39	    0
	 B1g	   26	    0	    0	    0	    26	    0
	 B2g	   26	    0	    0	    0	    26	    0
	 B3g	   0	    0	    0	    0	    0	    0
	 Au	   0	    0	    0	    0	    0	    0
	 B1u	   26	    0	    0	    0	    26	    0
	 B2u	   26	    0	    0	    0	    26	    0
	 B3u	   65	    13	    13	    0	    39	    0
	Transforming integrals...
	IWL integrals will be deleted.
	(OO|OO)...
	Presorting SO-basis two-electron integrals.
	Sorting File: SO Ints (nn|nn) nbuckets = 1
	Transforming the one-electron integrals and constructing Fock matrices
	Starting first half-transformation.
	Sorting half-transformed integrals.
	First half integral transformation complete.
	Starting second half-transformation.
	Two-electron integral transformation complete.
	(OO|OV)...
	Starting second half-transformation.
	Two-electron integral transformation complete.
	(OO|VV)...
	Starting second half-transformation.
	Two-electron integral transformation complete.
	(OV|OO)...
	Starting first half-transformation.
	Sorting half-transformed integrals.
	First half integral transformation complete.
	Starting second half-transformation.
	Two-electron integral transformation complete.
	(OV|OV)...
	Starting second half-transformation.
	Two-electron integral transformation complete.
	(OV|VV)...
	Starting second half-transformation.
	Two-electron integral transformation complete.
	(VV|OO)...
	Starting first half-transformation.
	Sorting half-transformed integrals.
	First half integral transformation complete.
	Starting second half-transformation.
	Two-electron integral transformation complete.
	(VV|OV)...
	Starting second half-transformation.
	Two-electron integral transformation complete.
	(VV|VV)...
	Starting second half-transformation.
	Two-electron integral transformation complete.
	Frozen core energy     =   -458.57988131511632

	Size of irrep 0 of <ab|cd> integrals:     33.017 (MW) /    264.132 (MB)
	Size of irrep 1 of <ab|cd> integrals:     16.451 (MW) /    131.609 (MB)
	Size of irrep 2 of <ab|cd> integrals:     16.451 (MW) /    131.609 (MB)
	Size of irrep 3 of <ab|cd> integrals:      7.312 (MW) /     58.493 (MB)
	Size of irrep 4 of <ab|cd> integrals:      7.312 (MW) /     58.493 (MB)
	Size of irrep 5 of <ab|cd> integrals:     16.451 (MW) /    131.609 (MB)
	Size of irrep 6 of <ab|cd> integrals:     16.451 (MW) /    131.609 (MB)
	Size of irrep 7 of <ab|cd> integrals:     33.017 (MW) /    264.132 (MB)
	Total:                                   146.461 (MW) /   1171.686 (MB)

	Size of irrep 0 of <ia|bc> integrals:      5.826 (MW) /     46.612 (MB)
	Size of irrep 1 of <ia|bc> integrals:      2.742 (MW) /     21.935 (MB)
	Size of irrep 2 of <ia|bc> integrals:      2.742 (MW) /     21.935 (MB)
	Size of irrep 3 of <ia|bc> integrals:      0.000 (MW) /      0.000 (MB)
	Size of irrep 4 of <ia|bc> integrals:      0.000 (MW) /      0.000 (MB)
	Size of irrep 5 of <ia|bc> integrals:      2.742 (MW) /     21.935 (MB)
	Size of irrep 6 of <ia|bc> integrals:      2.742 (MW) /     21.935 (MB)
	Size of irrep 7 of <ia|bc> integrals:      5.826 (MW) /     46.612 (MB)
	Total:                                    22.620 (MW) /    180.962 (MB)

	Size of irrep 0 of tijab amplitudes:       1.942 (MW) /     15.537 (MB)
	Size of irrep 1 of tijab amplitudes:       0.000 (MW) /      0.000 (MB)
	Size of irrep 2 of tijab amplitudes:       0.000 (MW) /      0.000 (MB)
	Size of irrep 3 of tijab amplitudes:       0.000 (MW) /      0.000 (MB)
	Size of irrep 4 of tijab amplitudes:       0.000 (MW) /      0.000 (MB)
	Size of irrep 5 of tijab amplitudes:       0.000 (MW) /      0.000 (MB)
	Size of irrep 6 of tijab amplitudes:       0.000 (MW) /      0.000 (MB)
	Size of irrep 7 of tijab amplitudes:       1.942 (MW) /     15.537 (MB)
	Total:                                     3.884 (MW) /     31.074 (MB)

	Nuclear Rep. energy          =    139.63676549989128
	SCF energy                   =   -378.74246577583995
	One-electron energy          =   -103.93270709988361
	Two-electron energy          =     44.13335713926070
	Reference energy             =   -378.74246577584796

*** tstop() called on chemistry.org at Mon Jan  8 20:10:23 2018
Module time:
	user time   =      18.75 seconds =       0.31 minutes
	system time =       9.92 seconds =       0.17 minutes
	total time  =         29 seconds =       0.48 minutes
Total time:
	user time   =     100.76 seconds =       1.68 minutes
	system time =      11.85 seconds =       0.20 minutes
	total time  =        114 seconds =       1.90 minutes

*** tstart() called on chemistry.org
*** at Mon Jan  8 20:10:23 2018

            **************************
            *                        *
            *        CCENERGY        *
            *                        *
            **************************

    Nuclear Rep. energy (wfn)     =  139.636765499891283
    SCF energy          (wfn)     = -378.742465775839946
    Reference energy    (file100) = -378.742465775847961

    Input parameters:
    -----------------
    Wave function   =     CCSD_T
    Reference wfn   =     RHF
    Brueckner       =     No
    Memory (Mbytes) =     24000.0
    Maxiter         =     50
    R_Convergence   =     1.0e-07
    E_Convergence   =     1.0e-10
    Restart         =     Yes
    DIIS            =     Yes
    AO Basis        =     NONE
    ABCD            =     NEW
    Cache Level     =     2
    Cache Type      =     LOW
    Print Level     =     1
    Num. of threads =     1
    # Amps to Print =     10
    Print MP2 Amps? =     No
    Analyze T2 Amps =     No
    Print Pair Ener =     No
    Local CC        =     No
    SCS-MP2         =     False
    SCSN-MP2        =     False
    SCS-CCSD        =     False

MP2 correlation energy -0.6166003692573879
                Solving CC Amplitude Equations
                ------------------------------
  Iter             Energy              RMS        T1Diag      D1Diag    New D1Diag    D2Diag
  ----     ---------------------    ---------   ----------  ----------  ----------   --------
     0        -0.616600369257354    0.000e+00    0.000000    0.000000    0.000000    0.168065
     1        -0.908696907643735    4.244e-01    0.004447    0.006790    0.006790    0.252456
     2        -1.193841002889114    2.218e-01    0.011988    0.018921    0.018921    0.339907
     3        -1.188291736557360    2.016e-02    0.013245    0.021251    0.021251    0.339645
     4        -1.194186305106446    6.015e-03    0.013540    0.021831    0.021831    0.341490
     5        -1.195571534776775    1.243e-03    0.013635    0.022038    0.022038    0.341890
     6        -1.194685347004060    7.812e-04    0.013611    0.022001    0.022001    0.341612
     7        -1.194553410458736    1.018e-04    0.013609    0.021999    0.021999    0.341571
     8        -1.194592172689703    5.841e-05    0.013610    0.022002    0.022002    0.341584
     9        -1.194609493863457    2.025e-05    0.013611    0.022002    0.022002    0.341589
    10        -1.194609140242296    9.707e-06    0.013611    0.022002    0.022002    0.341589
    11        -1.194608571228843    5.673e-06    0.013610    0.022002    0.022002    0.341589
    12        -1.194608593872035    2.067e-06    0.013610    0.022002    0.022002    0.341589
    13        -1.194608687269884    1.077e-06    0.013610    0.022002    0.022002    0.341589
    14        -1.194608708138006    4.020e-07    0.013610    0.022002    0.022002    0.341589
    15        -1.194608710365477    1.711e-07    0.013610    0.022002    0.022002    0.341589
    16        -1.194608700390641    8.608e-08    0.013610    0.022002    0.022002    0.341589
    17        -1.194608698100895    3.026e-08    0.013610    0.022002    0.022002    0.341589
    18        -1.194608696360445    8.163e-09    0.013610    0.022002    0.022002    0.341589
    19        -1.194608695741271    3.874e-09    0.013610    0.022002    0.022002    0.341589
    20        -1.194608695725915    2.240e-09    0.013610    0.022002    0.022002    0.341589
    21        -1.194608695824826    1.252e-09    0.013610    0.022002    0.022002    0.341589

    Iterations converged.


    Largest TIA Amplitudes:
              0  13        -0.0178777774
             13 156        -0.0177292690
              1  14         0.0174915371
             14 157         0.0171795234
              2  15         0.0168074203
             15 158         0.0163890637
              3  16         0.0159370698
             16 159         0.0154620352
              4  17         0.0149720524
             17 160         0.0144725451

    Largest TIjAb Amplitudes:
     13  13 143 143        -0.0114526902
      1   1   1   1        -0.0114123691
      0   0   0   0        -0.0113914928
     14  14 144 144        -0.0113158392
      2   2   2   2        -0.0111790573
     25  25  51  51        -0.0110188069
     25  25  77  77        -0.0110188069
     15  15 145 145        -0.0110107508
     12  12 103 103        -0.0108649277
     12  12 129 129        -0.0108649277

    SCF energy       (wfn)                    = -378.742465775839946
    Reference energy (file100)                = -378.742465775847961

    Opposite-spin MP2 correlation energy      =   -0.609075251990924
    Same-spin MP2 correlation energy          =   -0.007525117266430
    MP2 correlation energy                    =   -0.616600369257388
      * MP2 total energy                      = -379.359066145105373

    Opposite-spin CCSD correlation energy     =   -1.186550863525093
    Same-spin CCSD correlation energy         =   -0.008057837732091
    CCSD correlation energy                   =   -1.194608695824826
      * CCSD total energy                     = -379.937074471672759


*** tstop() called on chemistry.org at Mon Jan  8 20:13:06 2018
Module time:
	user time   =      73.43 seconds =       1.22 minutes
	system time =      31.64 seconds =       0.53 minutes
	total time  =        163 seconds =       2.72 minutes
Total time:
	user time   =     174.19 seconds =       2.90 minutes
	system time =      43.49 seconds =       0.72 minutes
	total time  =        277 seconds =       4.62 minutes

*** tstart() called on chemistry.org
*** at Mon Jan  8 20:13:06 2018

            **************************
            *                        *
            *        CCTRIPLES       *
            *                        *
            **************************


    Wave function   =    CCSD_T
    Reference wfn   =      RHF

    Nuclear Rep. energy (wfn)                =  139.636765499891283
    SCF energy          (wfn)                = -378.742465775839946
    Reference energy    (file100)            = -378.742465775847961
    CCSD energy         (file100)            =   -1.194608695824826
    Total CCSD energy   (file100)            = -379.937074471672759

    Number of ijk index combinations:             3276
    Memory available in words        :      3000000000
    ~Words needed per explicit thread:          237276
    Number of threads for explicit ijk threading:    1

    (T) energy                                =   -0.001652431922533
      * CCSD(T) total energy                  = -379.938726903595295


*** tstop() called on chemistry.org at Mon Jan  8 20:17:52 2018
Module time:
	user time   =     230.61 seconds =       3.84 minutes
	system time =      54.85 seconds =       0.91 minutes
	total time  =        286 seconds =       4.77 minutes
Total time:
	user time   =     404.80 seconds =       6.75 minutes
	system time =      98.34 seconds =       1.64 minutes
	total time  =        563 seconds =       9.38 minutes

*** Psi4 exiting successfully. Buy a developer a beer!
