    -----------------------------------------------------------------------
          Psi4: An Open-Source Ab Initio Electronic Structure Package
                              Psi4 1.0.0 Driver

                          Git: Rev {master} 6a9a71b dirty

    J. M. Turney, A. C. Simmonett, R. M. Parrish, E. G. Hohenstein,
    F. A. Evangelista, J. T. Fermann, B. J. Mintz, L. A. Burns, J. J. Wilke,
    M. L. Abrams, N. J. Russ, M. L. Leininger, C. L. Janssen, E. T. Seidl,
    W. D. Allen, H. F. Schaefer, R. A. King, E. F. Valeev, C. D. Sherrill,
    and T. D. Crawford, WIREs Comput. Mol. Sci. 2, 556-565 (2012)
    (doi: 10.1002/wcms.93)

                         Additional Contributions by
    A. E. DePrince, U. Bozkaya, A. Yu. Sokolov, D. G. A. Smith, R. Di Remigio,
    R. M. Richard, J. F. Gonthier, H. R. McAlexander, M. Saitow, and
    B. P. Pritchard
    -----------------------------------------------------------------------


    Psi4 started on: Mon Jan  8 10:57:05 2018

    Process ID:  30462
    PSI4DATADIR: /home/yhliu/psi4conda/share/psi4
    Memory level set to 256.000 MB

  ==> Input File <==

--------------------------------------------------------------------------
memory 24 Gb
molecule beN {
0 1
Be   0.0    0.0 0.0
Be   4.5    0.0 0.0
Be   9.0    0.0 0.0
Be  13.5    0.0 0.0
Be  18.0    0.0 0.0
Be  22.5    0.0 0.0
Be  27.0    0.0 0.0
units angstrom    
}

set basis 6-31g
set freeze_core true
set PRINT_BASIS True
set PUREAM False
set E_CONVERGENCE 1e-10
energy('ccsd(t)')
--------------------------------------------------------------------------
/home/yhliu/psi4conda/lib/python2.7/site-packages/v2rdm_casscf/v2rdm_casscf.so loaded.

  Memory set to  24.000 GiB by Python script.

*** tstart() called on chemistry.org
*** at Mon Jan  8 10:57:06 2018


         ---------------------------------------------------------
                                   SCF
            by Justin Turney, Rob Parrish, and Andy Simmonett
                              RHF Reference
                        1 Threads,  24000 MiB Core
         ---------------------------------------------------------

  ==> Geometry <==

    Molecular point group: d2h
    Full point group: D_inf_h

    Geometry (in Angstrom), charge = 0, multiplicity = 1:

       Center              X                  Y                   Z               Mass       
    ------------   -----------------  -----------------  -----------------  -----------------
          BE        -13.500000000000    -0.000000000000     0.000000000000     9.012182201000
          BE         -9.000000000000    -0.000000000000     0.000000000000     9.012182201000
          BE         -4.500000000000    -0.000000000000     0.000000000000     9.012182201000
          BE          0.000000000000     0.000000000000     0.000000000000     9.012182201000
          BE          4.500000000000     0.000000000000     0.000000000000     9.012182201000
          BE          9.000000000000     0.000000000000     0.000000000000     9.012182201000
          BE         13.500000000000     0.000000000000     0.000000000000     9.012182201000

  Running in d2h symmetry.

  Rotational constants: A = ************  B =      0.00330  C =      0.00330 [cm^-1]
  Rotational constants: A = ************  B =     98.90179  C =     98.90179 [MHz]
  Nuclear repulsion =   20.978936447212440

  Charge       = 0
  Multiplicity = 1
  Electrons    = 28
  Nalpha       = 14
  Nbeta        = 14

  ==> Algorithm <==

  SCF Algorithm Type is PK.
  DIIS enabled.
  MOM disabled.
  Fractional occupation disabled.
  Guess Type is SAD.
  Energy threshold   = 1.00e-10
  Density threshold  = 1.00e-08
  Integral threshold = 0.00e+00

  ==> Primary Basis <==

  Basis Set: 6-31G
    Number of shells: 35
    Number of basis function: 63
    Number of Cartesian functions: 63
    Spherical Harmonics?: false
    Max angular momentum: 1

  -AO BASIS SET INFORMATION:
    Name                   = 6-31G
    Total number of shells = 35
    Number of primitives   = 98
    Number of AO           = 63
    Number of SO           = 63
    Maximum AM             = 1
    Spherical Harmonics    = FALSE

  -Contraction Scheme:
    Atom   Type   All Primitives // Shells:
   ------ ------ --------------------------
       1    BE     10s 4p // 3s 2p 
       2    BE     10s 4p // 3s 2p 
       3    BE     10s 4p // 3s 2p 
       4    BE     10s 4p // 3s 2p 
       5    BE     10s 4p // 3s 2p 
       6    BE     10s 4p // 3s 2p 
       7    BE     10s 4p // 3s 2p 

  ==> AO Basis Functions <==

    [ 6-31G ]
    cartesian
    ****
   BE   1
    S   6 1.00
                      1264.58570000           0.00194480
                       189.93681000           0.01483510
                        43.15908900           0.07209060
                        12.09866300           0.23715420
                         3.80632320           0.46919870
                         1.27289030           0.35652020
    S   3 1.00
                         3.19646310          -0.11264870
                         0.74781330          -0.22950640
                         0.21996630           1.18691670
    P   3 1.00
                         3.19646310           0.05598020
                         0.74781330           0.26155060
                         0.21996630           0.79397230
    S   1 1.00
                         0.08230990           1.00000000
    P   1 1.00
                         0.08230990           1.00000000
    ****
   BE   2
    S   6 1.00
                      1264.58570000           0.00194480
                       189.93681000           0.01483510
                        43.15908900           0.07209060
                        12.09866300           0.23715420
                         3.80632320           0.46919870
                         1.27289030           0.35652020
    S   3 1.00
                         3.19646310          -0.11264870
                         0.74781330          -0.22950640
                         0.21996630           1.18691670
    P   3 1.00
                         3.19646310           0.05598020
                         0.74781330           0.26155060
                         0.21996630           0.79397230
    S   1 1.00
                         0.08230990           1.00000000
    P   1 1.00
                         0.08230990           1.00000000
    ****
   BE   3
    S   6 1.00
                      1264.58570000           0.00194480
                       189.93681000           0.01483510
                        43.15908900           0.07209060
                        12.09866300           0.23715420
                         3.80632320           0.46919870
                         1.27289030           0.35652020
    S   3 1.00
                         3.19646310          -0.11264870
                         0.74781330          -0.22950640
                         0.21996630           1.18691670
    P   3 1.00
                         3.19646310           0.05598020
                         0.74781330           0.26155060
                         0.21996630           0.79397230
    S   1 1.00
                         0.08230990           1.00000000
    P   1 1.00
                         0.08230990           1.00000000
    ****
   BE   4
    S   6 1.00
                      1264.58570000           0.00194480
                       189.93681000           0.01483510
                        43.15908900           0.07209060
                        12.09866300           0.23715420
                         3.80632320           0.46919870
                         1.27289030           0.35652020
    S   3 1.00
                         3.19646310          -0.11264870
                         0.74781330          -0.22950640
                         0.21996630           1.18691670
    P   3 1.00
                         3.19646310           0.05598020
                         0.74781330           0.26155060
                         0.21996630           0.79397230
    S   1 1.00
                         0.08230990           1.00000000
    P   1 1.00
                         0.08230990           1.00000000
    ****

  ==> Pre-Iterations <==

   -------------------------------------------------------
    Irrep   Nso     Nmo     Nalpha   Nbeta   Ndocc  Nsocc
   -------------------------------------------------------
     Ag        18      18       0       0       0       0
     B1g        6       6       0       0       0       0
     B2g        6       6       0       0       0       0
     B3g        0       0       0       0       0       0
     Au         0       0       0       0       0       0
     B1u        8       8       0       0       0       0
     B2u        8       8       0       0       0       0
     B3u       17      17       0       0       0       0
   -------------------------------------------------------
    Total      63      63      14      14      14       0
   -------------------------------------------------------

  ==> Integral Setup <==

  Using in-core PK algorithm.
   Calculation information:
      Number of atoms:                   7
      Number of AO shells:              35
      Number of primitives:             98
      Number of atomic orbitals:        63
      Number of basis functions:        63

      Integral cutoff                 1.00e-12
      Number of threads:                 1

  Performing in-core PK
  Using 4066272 doubles for integral storage.
  We computed 50165 shell quartets total.
  Whereas there are 198765 unique shell quartets.
  ==> DiskJK: Disk-Based J/K Matrices <==

    J tasked:                  Yes
    K tasked:                  Yes
    wK tasked:                  No
    Memory (MB):             17166
    Schwarz Cutoff:          1E-12

    OpenMP threads:              1
  Minimum eigenvalue in the overlap matrix is 1.0055536914E-01.
  Using Symmetric Orthogonalization.
  SCF Guess: Superposition of Atomic Densities via on-the-fly atomic UHF.

  ==> Iterations <==

                        Total Energy        Delta E     RMS |[F,P]|

   @RHF iter   0:  -101.97277273484403   -1.01973e+02   1.43749e-03 
   @RHF iter   1:  -101.96865129098234    4.12144e-03   3.18228e-04 
   @RHF iter   2:  -101.96890944715472   -2.58156e-04   1.04580e-04 DIIS
   @RHF iter   3:  -101.96894289233794   -3.34452e-05   5.52123e-06 DIIS
   @RHF iter   4:  -101.96894295845303   -6.61151e-08   3.82922e-07 DIIS
   @RHF iter   5:  -101.96894295866838   -2.15351e-10   5.25549e-08 DIIS
   @RHF iter   6:  -101.96894295867281   -4.43379e-12   4.32113e-09 DIIS

  ==> Post-Iterations <==

    Orbital Energies (a.u.)
    -----------------------

    Doubly Occupied:                                                      

       1B3u   -4.708056     1Ag    -4.708056     2B3u   -4.707947  
       2Ag    -4.707947     3Ag    -4.707922     3B3u   -4.707382  
       4Ag    -4.707382     5Ag    -0.316583     4B3u   -0.313446  
       6Ag    -0.308428     5B3u   -0.302099     7Ag    -0.295285  
       6B3u   -0.289038     8Ag    -0.284513  

    Virtual:                                                              

       7B3u    0.040794     9Ag     0.051124     8B3u    0.067509  
       1B2u    0.069007     1B1u    0.069007     1B2g    0.071970  
       1B1g    0.071970     2B2u    0.076614     2B1u    0.076614  
       2B2g    0.082289     2B1g    0.082289     3B2u    0.088157  
       3B1u    0.088157    10Ag     0.088624     3B2g    0.093292  
       3B1g    0.093292     4B2u    0.096857     4B1u    0.096857  
       9B3u    0.112608    11Ag     0.136248    10B3u    0.154350  
      12Ag     0.397856    11B3u    0.404224    13Ag     0.413917  
      12B3u    0.425741    14Ag     0.438577     5B2u    0.443825  
       5B1u    0.443825     4B2g    0.447994     4B1g    0.447994  
      13B3u    0.451270     6B2u    0.454990     6B1u    0.454990  
      15Ag     0.462317     5B2g    0.464453     5B1g    0.464453  
      14B3u    0.465112     7B2u    0.475474     7B1u    0.475474  
       6B2g    0.486312     6B1g    0.486312     8B2u    0.494515  
       8B1u    0.494515    16Ag     0.528133    15B3u    0.541006  
      17Ag     0.559297    16B3u    0.583501    18Ag     0.614380  
      17B3u    0.646205  

    Final Occupation by Irrep:
             Ag   B1g   B2g   B3g    Au   B1u   B2u   B3u 
    DOCC [     8,    0,    0,    0,    0,    0,    0,    6 ]

  Energy converged.

  @RHF Final Energy:  -101.96894295867281

   => Energetics <=

    Nuclear Repulsion Energy =             20.9789364472124404
    One-Electron Energy =                -175.7675885963303131
    Two-Electron Energy =                  52.8197091904450744
    DFT Exchange-Correlation Energy =       0.0000000000000000
    Empirical Dispersion Energy =           0.0000000000000000
    PCM Polarization Energy =               0.0000000000000000
    EFP Energy =                            0.0000000000000000
    Total Energy =                       -101.9689429586727840


  Saving occupied orbitals to File 180.

*** tstop() called on chemistry.org at Mon Jan  8 10:57:06 2018
Module time:
	user time   =       0.37 seconds =       0.01 minutes
	system time =       0.02 seconds =       0.00 minutes
	total time  =          0 seconds =       0.00 minutes
Total time:
	user time   =       0.37 seconds =       0.01 minutes
	system time =       0.02 seconds =       0.00 minutes
	total time  =          0 seconds =       0.00 minutes


Properties will be evaluated at   0.000000,   0.000000,   0.000000 Bohr

Properties computed using the SCF density matrix

  Nuclear Dipole Moment: (a.u.)
     X:    -0.0000      Y:    -0.0000      Z:     0.0000

  Electronic Dipole Moment: (a.u.)
     X:     0.0000      Y:     0.0000      Z:     0.0000

  Dipole Moment: (a.u.)
     X:    -0.0000      Y:    -0.0000      Z:     0.0000     Total:     0.0000

  Dipole Moment: (Debye)
     X:    -0.0000      Y:    -0.0000      Z:     0.0000     Total:     0.0000

 MINTS: Wrapper to libmints.
   by Justin Turney

   Calculation information:
      Number of atoms:                   7
      Number of AO shells:              35
      Number of SO shells:              20
      Number of primitives:             98
      Number of atomic orbitals:        63
      Number of basis functions:        63

      Number of irreps:                  8
      Integral cutoff                 0.00e+00
      Number of functions per irrep: [  18    6    6    0    0    8    8   17 ]

 OEINTS: Overlap, kinetic, potential, dipole, and quadrupole integrals
         stored in file 35.

      Computing two-electron integrals...done
      Computed 307390 non-zero two-electron integrals.
        Stored in file 33.


*** tstart() called on chemistry.org
*** at Mon Jan  8 10:57:06 2018


	Wfn Parameters:
	--------------------
	Wavefunction         = CCSD_T
	Number of irreps     = 8
	Number of MOs        = 63
	Number of active MOs = 56
	AO-Basis             = NONE
	Semicanonical        = false
	Reference            = RHF
	Print Level          = 1

	IRREP	# MOs	# FZDC	# DOCC	# SOCC	# VIRT	# FZVR
	-----	-----	------	------	------	------	------
	 Ag	   18	    4	    4	    0	    10	    0
	 B1g	   6	    0	    0	    0	    6	    0
	 B2g	   6	    0	    0	    0	    6	    0
	 B3g	   0	    0	    0	    0	    0	    0
	 Au	   0	    0	    0	    0	    0	    0
	 B1u	   8	    0	    0	    0	    8	    0
	 B2u	   8	    0	    0	    0	    8	    0
	 B3u	   17	    3	    3	    0	    11	    0
	Transforming integrals...
	IWL integrals will be deleted.
	(OO|OO)...
	Presorting SO-basis two-electron integrals.
	Sorting File: SO Ints (nn|nn) nbuckets = 1
	Transforming the one-electron integrals and constructing Fock matrices
	Starting first half-transformation.
	Sorting half-transformed integrals.
	First half integral transformation complete.
	Starting second half-transformation.
	Two-electron integral transformation complete.
	(OO|OV)...
	Starting second half-transformation.
	Two-electron integral transformation complete.
	(OO|VV)...
	Starting second half-transformation.
	Two-electron integral transformation complete.
	(OV|OO)...
	Starting first half-transformation.
	Sorting half-transformed integrals.
	First half integral transformation complete.
	Starting second half-transformation.
	Two-electron integral transformation complete.
	(OV|OV)...
	Starting second half-transformation.
	Two-electron integral transformation complete.
	(OV|VV)...
	Starting second half-transformation.
	Two-electron integral transformation complete.
	(VV|OO)...
	Starting first half-transformation.
	Sorting half-transformed integrals.
	First half integral transformation complete.
	Starting second half-transformation.
	Two-electron integral transformation complete.
	(VV|OV)...
	Starting second half-transformation.
	Two-electron integral transformation complete.
	(VV|VV)...
	Starting second half-transformation.
	Two-electron integral transformation complete.
	Frozen core energy     =   -111.00213237565636

	Size of irrep 0 of <ab|cd> integrals:      0.177 (MW) /      1.418 (MB)
	Size of irrep 1 of <ab|cd> integrals:      0.088 (MW) /      0.701 (MB)
	Size of irrep 2 of <ab|cd> integrals:      0.088 (MW) /      0.701 (MB)
	Size of irrep 3 of <ab|cd> integrals:      0.040 (MW) /      0.320 (MB)
	Size of irrep 4 of <ab|cd> integrals:      0.037 (MW) /      0.295 (MB)
	Size of irrep 5 of <ab|cd> integrals:      0.085 (MW) /      0.682 (MB)
	Size of irrep 6 of <ab|cd> integrals:      0.085 (MW) /      0.682 (MB)
	Size of irrep 7 of <ab|cd> integrals:      0.170 (MW) /      1.358 (MB)
	Total:                                     0.770 (MW) /      6.157 (MB)

	Size of irrep 0 of <ia|bc> integrals:      0.031 (MW) /      0.246 (MB)
	Size of irrep 1 of <ia|bc> integrals:      0.014 (MW) /      0.114 (MB)
	Size of irrep 2 of <ia|bc> integrals:      0.014 (MW) /      0.114 (MB)
	Size of irrep 3 of <ia|bc> integrals:      0.000 (MW) /      0.000 (MB)
	Size of irrep 4 of <ia|bc> integrals:      0.000 (MW) /      0.000 (MB)
	Size of irrep 5 of <ia|bc> integrals:      0.015 (MW) /      0.117 (MB)
	Size of irrep 6 of <ia|bc> integrals:      0.015 (MW) /      0.117 (MB)
	Size of irrep 7 of <ia|bc> integrals:      0.030 (MW) /      0.244 (MB)
	Total:                                     0.119 (MW) /      0.951 (MB)

	Size of irrep 0 of tijab amplitudes:       0.011 (MW) /      0.084 (MB)
	Size of irrep 1 of tijab amplitudes:       0.000 (MW) /      0.000 (MB)
	Size of irrep 2 of tijab amplitudes:       0.000 (MW) /      0.000 (MB)
	Size of irrep 3 of tijab amplitudes:       0.000 (MW) /      0.000 (MB)
	Size of irrep 4 of tijab amplitudes:       0.000 (MW) /      0.000 (MB)
	Size of irrep 5 of tijab amplitudes:       0.000 (MW) /      0.000 (MB)
	Size of irrep 6 of tijab amplitudes:       0.000 (MW) /      0.000 (MB)
	Size of irrep 7 of tijab amplitudes:       0.010 (MW) /      0.079 (MB)
	Total:                                     0.020 (MW) /      0.163 (MB)

	Nuclear Rep. energy          =     20.97893644721244
	SCF energy                   =   -101.96894295867281
	One-electron energy          =    -19.67271025711051
	Two-electron energy          =      7.72696322688088
	Reference energy             =   -101.96894295867357

*** tstop() called on chemistry.org at Mon Jan  8 10:57:07 2018
Module time:
	user time   =       0.09 seconds =       0.00 minutes
	system time =       0.06 seconds =       0.00 minutes
	total time  =          1 seconds =       0.02 minutes
Total time:
	user time   =       0.93 seconds =       0.02 minutes
	system time =       0.08 seconds =       0.00 minutes
	total time  =          1 seconds =       0.02 minutes

*** tstart() called on chemistry.org
*** at Mon Jan  8 10:57:07 2018

            **************************
            *                        *
            *        CCENERGY        *
            *                        *
            **************************

    Nuclear Rep. energy (wfn)     =   20.978936447212440
    SCF energy          (wfn)     = -101.968942958672812
    Reference energy    (file100) = -101.968942958673566

    Input parameters:
    -----------------
    Wave function   =     CCSD_T
    Reference wfn   =     RHF
    Brueckner       =     No
    Memory (Mbytes) =     24000.0
    Maxiter         =     50
    R_Convergence   =     1.0e-07
    E_Convergence   =     1.0e-10
    Restart         =     Yes
    DIIS            =     Yes
    AO Basis        =     NONE
    ABCD            =     NEW
    Cache Level     =     2
    Cache Type      =     LOW
    Print Level     =     1
    Num. of threads =     1
    # Amps to Print =     10
    Print MP2 Amps? =     No
    Analyze T2 Amps =     No
    Print Pair Ener =     No
    Local CC        =     No
    SCS-MP2         =     False
    SCSN-MP2        =     False
    SCS-CCSD        =     False

MP2 correlation energy -0.1656364693032144
                Solving CC Amplitude Equations
                ------------------------------
  Iter             Energy              RMS        T1Diag      D1Diag    New D1Diag    D2Diag
  ----     ---------------------    ---------   ----------  ----------  ----------   --------
     0        -0.165636469303211    0.000e+00    0.000000    0.000000    0.000000    0.167515
     1        -0.244339028927683    2.206e-01    0.004464    0.006732    0.006732    0.251701
     2        -0.321550653744694    1.154e-01    0.011958    0.018586    0.018586    0.339247
     3        -0.319945878121743    1.013e-02    0.013117    0.020713    0.020713    0.338849
     4        -0.321517910591273    3.034e-03    0.013390    0.021242    0.021242    0.340679
     5        -0.321884820611532    6.125e-04    0.013476    0.021431    0.021431    0.341086
     6        -0.321644024081510    4.009e-04    0.013452    0.021395    0.021395    0.340810
     7        -0.321611578185182    4.974e-05    0.013450    0.021394    0.021394    0.340775
     8        -0.321623735544422    3.246e-05    0.013452    0.021397    0.021397    0.340791
     9        -0.321628386893325    1.030e-05    0.013452    0.021397    0.021397    0.340797
    10        -0.321628294609072    4.864e-06    0.013452    0.021397    0.021397    0.340797
    11        -0.321628150807234    2.898e-06    0.013452    0.021397    0.021397    0.340797
    12        -0.321628162116569    1.033e-06    0.013452    0.021397    0.021397    0.340797
    13        -0.321628186247910    5.317e-07    0.013452    0.021397    0.021397    0.340797
    14        -0.321628191230875    1.987e-07    0.013452    0.021397    0.021397    0.340797
    15        -0.321628191572045    8.641e-08    0.013452    0.021397    0.021397    0.340797
    16        -0.321628189152120    4.389e-08    0.013452    0.021397    0.021397    0.340797
    17        -0.321628188459106    1.519e-08    0.013452    0.021397    0.021397    0.340797
    18        -0.321628188041444    4.020e-09    0.013452    0.021397    0.021397    0.340797
    19        -0.321628187903702    1.901e-09    0.013452    0.021397    0.021397    0.340797
    20        -0.321628187911323    1.067e-09    0.013452    0.021397    0.021397    0.340797
    21        -0.321628187936820    5.962e-10    0.013452    0.021397    0.021397    0.340797

    Iterations converged.


    Largest TIA Amplitudes:
              0   3         0.0174751956
              4  42         0.0163766403
              1   4         0.0149398162
              5  43         0.0133344745
              3   7        -0.0122217921
              2   5         0.0114585024
              2   1         0.0112032717
              5  40         0.0105285986
              6  46        -0.0100422102
              6  39        -0.0100017683

    Largest TIjAb Amplitudes:
      5   5  11  11        -0.0427515962
      5   5  17  17        -0.0427515962
      5   5   1   1        -0.0411834530
      0   0  38  38        -0.0381176360
      4   4   0   0        -0.0367669236
      3   3  25  25        -0.0359835933
      3   3  33  33        -0.0359835933
      0   3  38  41         0.0358281410
      3   0  41  38         0.0358281410
      6   6  12  12        -0.0347402235

    SCF energy       (wfn)                    = -101.968942958672812
    Reference energy (file100)                = -101.968942958673566

    Opposite-spin MP2 correlation energy      =   -0.163844335210932
    Same-spin MP2 correlation energy          =   -0.001792134092279
    MP2 correlation energy                    =   -0.165636469303214
      * MP2 total energy                      = -102.134579427976774

    Opposite-spin CCSD correlation energy     =   -0.319710549568730
    Same-spin CCSD correlation energy         =   -0.001917639738188
    CCSD correlation energy                   =   -0.321628187936820
      * CCSD total energy                     = -102.290571146610390


*** tstop() called on chemistry.org at Mon Jan  8 10:57:07 2018
Module time:
	user time   =       0.25 seconds =       0.00 minutes
	system time =       0.19 seconds =       0.00 minutes
	total time  =          0 seconds =       0.00 minutes
Total time:
	user time   =       1.18 seconds =       0.02 minutes
	system time =       0.27 seconds =       0.00 minutes
	total time  =          1 seconds =       0.02 minutes

*** tstart() called on chemistry.org
*** at Mon Jan  8 10:57:07 2018

            **************************
            *                        *
            *        CCTRIPLES       *
            *                        *
            **************************


    Wave function   =    CCSD_T
    Reference wfn   =      RHF

    Nuclear Rep. energy (wfn)                =   20.978936447212440
    SCF energy          (wfn)                = -101.968942958672812
    Reference energy    (file100)            = -101.968942958673566
    CCSD energy         (file100)            =   -0.321628187936820
    Total CCSD energy   (file100)            = -102.290571146610390

    Number of ijk index combinations:               84
    Memory available in words        :      3000000000
    ~Words needed per explicit thread:            5324
    Number of threads for explicit ijk threading:    1

    (T) energy                                =   -0.000392259704509
      * CCSD(T) total energy                  = -102.290963406314901


*** tstop() called on chemistry.org at Mon Jan  8 10:57:07 2018
Module time:
	user time   =       0.11 seconds =       0.00 minutes
	system time =       0.04 seconds =       0.00 minutes
	total time  =          0 seconds =       0.00 minutes
Total time:
	user time   =       1.29 seconds =       0.02 minutes
	system time =       0.31 seconds =       0.01 minutes
	total time  =          1 seconds =       0.02 minutes

*** Psi4 exiting successfully. Buy a developer a beer!
