    -----------------------------------------------------------------------
          Psi4: An Open-Source Ab Initio Electronic Structure Package
                              Psi4 1.0.0 Driver

                          Git: Rev {master} 6a9a71b dirty

    J. M. Turney, A. C. Simmonett, R. M. Parrish, E. G. Hohenstein,
    F. A. Evangelista, J. T. Fermann, B. J. Mintz, L. A. Burns, J. J. Wilke,
    M. L. Abrams, N. J. Russ, M. L. Leininger, C. L. Janssen, E. T. Seidl,
    W. D. Allen, H. F. Schaefer, R. A. King, E. F. Valeev, C. D. Sherrill,
    and T. D. Crawford, WIREs Comput. Mol. Sci. 2, 556-565 (2012)
    (doi: 10.1002/wcms.93)

                         Additional Contributions by
    A. E. DePrince, U. Bozkaya, A. Yu. Sokolov, D. G. A. Smith, R. Di Remigio,
    R. M. Richard, J. F. Gonthier, H. R. McAlexander, M. Saitow, and
    B. P. Pritchard
    -----------------------------------------------------------------------


    Psi4 started on: Mon Jan  8 10:58:46 2018

    Process ID:  30645
    PSI4DATADIR: /home/yhliu/psi4conda/share/psi4
    Memory level set to 256.000 MB

  ==> Input File <==

--------------------------------------------------------------------------
memory 24 Gb
molecule beN {
0 1
Be   0.0    0.0 0.0
Be   4.5    0.0 0.0
Be   9.0    0.0 0.0
Be  13.5    0.0 0.0
Be  18.0    0.0 0.0
Be  22.5    0.0 0.0
Be  27.0    0.0 0.0
Be  31.5    0.0 0.0
Be  36.0    0.0 0.0
Be  40.5    0.0 0.0
Be  45.0    0.0 0.0
Be  49.5    0.0 0.0
Be  54.0    0.0 0.0
Be  58.5    0.0 0.0
Be  63.0    0.0 0.0
Be  67.5    0.0 0.0
units angstrom    
}

set basis 6-31g
set freeze_core true
set PRINT_BASIS True
set PUREAM False
set E_CONVERGENCE 1e-10
energy('ccsd(t)')
--------------------------------------------------------------------------
/home/yhliu/psi4conda/lib/python2.7/site-packages/v2rdm_casscf/v2rdm_casscf.so loaded.

  Memory set to  24.000 GiB by Python script.

*** tstart() called on chemistry.org
*** at Mon Jan  8 10:58:46 2018


         ---------------------------------------------------------
                                   SCF
            by Justin Turney, Rob Parrish, and Andy Simmonett
                              RHF Reference
                        1 Threads,  24000 MiB Core
         ---------------------------------------------------------

  ==> Geometry <==

    Molecular point group: d2h
    Full point group: D_inf_h

    Geometry (in Angstrom), charge = 0, multiplicity = 1:

       Center              X                  Y                   Z               Mass       
    ------------   -----------------  -----------------  -----------------  -----------------
          BE        -33.750000000000    -0.000000000000     0.000000000000     9.012182201000
          BE        -29.250000000000    -0.000000000000     0.000000000000     9.012182201000
          BE        -24.750000000000    -0.000000000000     0.000000000000     9.012182201000
          BE        -20.250000000000    -0.000000000000     0.000000000000     9.012182201000
          BE        -15.750000000000    -0.000000000000     0.000000000000     9.012182201000
          BE        -11.250000000000    -0.000000000000     0.000000000000     9.012182201000
          BE         -6.750000000000    -0.000000000000     0.000000000000     9.012182201000
          BE         -2.250000000000    -0.000000000000     0.000000000000     9.012182201000
          BE          2.250000000000     0.000000000000     0.000000000000     9.012182201000
          BE          6.750000000000     0.000000000000     0.000000000000     9.012182201000
          BE         11.250000000000     0.000000000000     0.000000000000     9.012182201000
          BE         15.750000000000     0.000000000000     0.000000000000     9.012182201000
          BE         20.250000000000     0.000000000000     0.000000000000     9.012182201000
          BE         24.750000000000     0.000000000000     0.000000000000     9.012182201000
          BE         29.250000000000     0.000000000000     0.000000000000     9.012182201000
          BE         33.750000000000     0.000000000000     0.000000000000     9.012182201000

  Running in d2h symmetry.

  Rotational constants: A = ************  B =      0.00027  C =      0.00027 [cm^-1]
  Rotational constants: A = ************  B =      8.14485  C =      8.14485 [MHz]
  Nuclear repulsion =   71.670187977739332

  Charge       = 0
  Multiplicity = 1
  Electrons    = 64
  Nalpha       = 32
  Nbeta        = 32

  ==> Algorithm <==

  SCF Algorithm Type is PK.
  DIIS enabled.
  MOM disabled.
  Fractional occupation disabled.
  Guess Type is SAD.
  Energy threshold   = 1.00e-10
  Density threshold  = 1.00e-08
  Integral threshold = 0.00e+00

  ==> Primary Basis <==

  Basis Set: 6-31G
    Number of shells: 80
    Number of basis function: 144
    Number of Cartesian functions: 144
    Spherical Harmonics?: false
    Max angular momentum: 1

  -AO BASIS SET INFORMATION:
    Name                   = 6-31G
    Total number of shells = 80
    Number of primitives   = 224
    Number of AO           = 144
    Number of SO           = 144
    Maximum AM             = 1
    Spherical Harmonics    = FALSE

  -Contraction Scheme:
    Atom   Type   All Primitives // Shells:
   ------ ------ --------------------------
       1    BE     10s 4p // 3s 2p 
       2    BE     10s 4p // 3s 2p 
       3    BE     10s 4p // 3s 2p 
       4    BE     10s 4p // 3s 2p 
       5    BE     10s 4p // 3s 2p 
       6    BE     10s 4p // 3s 2p 
       7    BE     10s 4p // 3s 2p 
       8    BE     10s 4p // 3s 2p 
       9    BE     10s 4p // 3s 2p 
      10    BE     10s 4p // 3s 2p 
      11    BE     10s 4p // 3s 2p 
      12    BE     10s 4p // 3s 2p 
      13    BE     10s 4p // 3s 2p 
      14    BE     10s 4p // 3s 2p 
      15    BE     10s 4p // 3s 2p 
      16    BE     10s 4p // 3s 2p 

  ==> AO Basis Functions <==

    [ 6-31G ]
    cartesian
    ****
   BE   1
    S   6 1.00
                      1264.58570000           0.00194480
                       189.93681000           0.01483510
                        43.15908900           0.07209060
                        12.09866300           0.23715420
                         3.80632320           0.46919870
                         1.27289030           0.35652020
    S   3 1.00
                         3.19646310          -0.11264870
                         0.74781330          -0.22950640
                         0.21996630           1.18691670
    P   3 1.00
                         3.19646310           0.05598020
                         0.74781330           0.26155060
                         0.21996630           0.79397230
    S   1 1.00
                         0.08230990           1.00000000
    P   1 1.00
                         0.08230990           1.00000000
    ****
   BE   2
    S   6 1.00
                      1264.58570000           0.00194480
                       189.93681000           0.01483510
                        43.15908900           0.07209060
                        12.09866300           0.23715420
                         3.80632320           0.46919870
                         1.27289030           0.35652020
    S   3 1.00
                         3.19646310          -0.11264870
                         0.74781330          -0.22950640
                         0.21996630           1.18691670
    P   3 1.00
                         3.19646310           0.05598020
                         0.74781330           0.26155060
                         0.21996630           0.79397230
    S   1 1.00
                         0.08230990           1.00000000
    P   1 1.00
                         0.08230990           1.00000000
    ****
   BE   3
    S   6 1.00
                      1264.58570000           0.00194480
                       189.93681000           0.01483510
                        43.15908900           0.07209060
                        12.09866300           0.23715420
                         3.80632320           0.46919870
                         1.27289030           0.35652020
    S   3 1.00
                         3.19646310          -0.11264870
                         0.74781330          -0.22950640
                         0.21996630           1.18691670
    P   3 1.00
                         3.19646310           0.05598020
                         0.74781330           0.26155060
                         0.21996630           0.79397230
    S   1 1.00
                         0.08230990           1.00000000
    P   1 1.00
                         0.08230990           1.00000000
    ****
   BE   4
    S   6 1.00
                      1264.58570000           0.00194480
                       189.93681000           0.01483510
                        43.15908900           0.07209060
                        12.09866300           0.23715420
                         3.80632320           0.46919870
                         1.27289030           0.35652020
    S   3 1.00
                         3.19646310          -0.11264870
                         0.74781330          -0.22950640
                         0.21996630           1.18691670
    P   3 1.00
                         3.19646310           0.05598020
                         0.74781330           0.26155060
                         0.21996630           0.79397230
    S   1 1.00
                         0.08230990           1.00000000
    P   1 1.00
                         0.08230990           1.00000000
    ****
   BE   5
    S   6 1.00
                      1264.58570000           0.00194480
                       189.93681000           0.01483510
                        43.15908900           0.07209060
                        12.09866300           0.23715420
                         3.80632320           0.46919870
                         1.27289030           0.35652020
    S   3 1.00
                         3.19646310          -0.11264870
                         0.74781330          -0.22950640
                         0.21996630           1.18691670
    P   3 1.00
                         3.19646310           0.05598020
                         0.74781330           0.26155060
                         0.21996630           0.79397230
    S   1 1.00
                         0.08230990           1.00000000
    P   1 1.00
                         0.08230990           1.00000000
    ****
   BE   6
    S   6 1.00
                      1264.58570000           0.00194480
                       189.93681000           0.01483510
                        43.15908900           0.07209060
                        12.09866300           0.23715420
                         3.80632320           0.46919870
                         1.27289030           0.35652020
    S   3 1.00
                         3.19646310          -0.11264870
                         0.74781330          -0.22950640
                         0.21996630           1.18691670
    P   3 1.00
                         3.19646310           0.05598020
                         0.74781330           0.26155060
                         0.21996630           0.79397230
    S   1 1.00
                         0.08230990           1.00000000
    P   1 1.00
                         0.08230990           1.00000000
    ****
   BE   7
    S   6 1.00
                      1264.58570000           0.00194480
                       189.93681000           0.01483510
                        43.15908900           0.07209060
                        12.09866300           0.23715420
                         3.80632320           0.46919870
                         1.27289030           0.35652020
    S   3 1.00
                         3.19646310          -0.11264870
                         0.74781330          -0.22950640
                         0.21996630           1.18691670
    P   3 1.00
                         3.19646310           0.05598020
                         0.74781330           0.26155060
                         0.21996630           0.79397230
    S   1 1.00
                         0.08230990           1.00000000
    P   1 1.00
                         0.08230990           1.00000000
    ****
   BE   8
    S   6 1.00
                      1264.58570000           0.00194480
                       189.93681000           0.01483510
                        43.15908900           0.07209060
                        12.09866300           0.23715420
                         3.80632320           0.46919870
                         1.27289030           0.35652020
    S   3 1.00
                         3.19646310          -0.11264870
                         0.74781330          -0.22950640
                         0.21996630           1.18691670
    P   3 1.00
                         3.19646310           0.05598020
                         0.74781330           0.26155060
                         0.21996630           0.79397230
    S   1 1.00
                         0.08230990           1.00000000
    P   1 1.00
                         0.08230990           1.00000000
    ****

  ==> Pre-Iterations <==

   -------------------------------------------------------
    Irrep   Nso     Nmo     Nalpha   Nbeta   Ndocc  Nsocc
   -------------------------------------------------------
     Ag        40      40       0       0       0       0
     B1g       16      16       0       0       0       0
     B2g       16      16       0       0       0       0
     B3g        0       0       0       0       0       0
     Au         0       0       0       0       0       0
     B1u       16      16       0       0       0       0
     B2u       16      16       0       0       0       0
     B3u       40      40       0       0       0       0
   -------------------------------------------------------
    Total     144     144      32      32      32       0
   -------------------------------------------------------

  ==> Integral Setup <==

  Using in-core PK algorithm.
   Calculation information:
      Number of atoms:                  16
      Number of AO shells:              80
      Number of primitives:            224
      Number of atomic orbitals:       144
      Number of basis functions:       144

      Integral cutoff                 1.00e-12
      Number of threads:                 1

  Performing in-core PK
  Using 109004040 doubles for integral storage.
  We computed 310157 shell quartets total.
  Whereas there are 5250420 unique shell quartets.
  ==> DiskJK: Disk-Based J/K Matrices <==

    J tasked:                  Yes
    K tasked:                  Yes
    wK tasked:                  No
    Memory (MB):             17166
    Schwarz Cutoff:          1E-12

    OpenMP threads:              1
  Minimum eigenvalue in the overlap matrix is 1.0043050221E-01.
  Using Symmetric Orthogonalization.
  SCF Guess: Superposition of Atomic Densities via on-the-fly atomic UHF.

  ==> Iterations <==

                        Total Energy        Delta E     RMS |[F,P]|

   @RHF iter   0:  -233.08178579139803   -2.33082e+02   9.95303e-04 
   @RHF iter   1:  -233.07145712541990    1.03287e-02   2.20912e-04 
   @RHF iter   2:  -233.07210575135093   -6.48626e-04   7.29096e-05 DIIS
   @RHF iter   3:  -233.07219045857681   -8.47072e-05   3.66129e-06 DIIS
   @RHF iter   4:  -233.07219061191586   -1.53339e-07   1.82706e-07 DIIS
   @RHF iter   5:  -233.07219061218075   -2.64890e-10   3.31694e-08 DIIS
   @RHF iter   6:  -233.07219061219092   -1.01750e-11   3.99359e-09 DIIS

  ==> Post-Iterations <==

    Orbital Energies (a.u.)
    -----------------------

    Doubly Occupied:                                                      

       1B3u   -4.708045     1Ag    -4.708045     2B3u   -4.707929  
       2Ag    -4.707929     3B3u   -4.707888     3Ag    -4.707888  
       4B3u   -4.707872     4Ag    -4.707872     5B3u   -4.707865  
       5Ag    -4.707865     6B3u   -4.707862     6Ag    -4.707862  
       7B3u   -4.707860     7Ag    -4.707858     8B3u   -4.707375  
       8Ag    -4.707375     9Ag    -0.317344     9B3u   -0.316665  
      10Ag    -0.315515    10B3u   -0.313913    11Ag    -0.311889  
      11B3u   -0.309486    12Ag    -0.306758    12B3u   -0.303774  
      13Ag    -0.300616    13B3u   -0.297382    14Ag    -0.294185  
      14B3u   -0.291147    15Ag    -0.288400    15B3u   -0.286073  
      16Ag    -0.284290    16B3u   -0.283155  

    Virtual:                                                              

      17Ag     0.038161    17B3u    0.040588    18Ag     0.044604  
      18B3u    0.050116    19Ag     0.057001    19B3u    0.065117  
       1B1u    0.068286     1B2u    0.068286     1B1g    0.068942  
       1B2g    0.068942     2B1u    0.070049     2B2u    0.070049  
       2B1g    0.071578     2B2g    0.071578     3B1u    0.073487  
       3B2u    0.073487    20Ag     0.074309     3B1g    0.075724  
       3B2g    0.075724     4B2u    0.078222     4B1u    0.078222  
       4B1g    0.080906     4B2g    0.080906     5B2u    0.083688  
       5B1u    0.083688    20B3u    0.084406     5B1g    0.086474  
       5B2g    0.086474     6B1u    0.089163     6B2u    0.089163  
       6B1g    0.091655     6B2g    0.091655     7B1u    0.093856  
       7B2u    0.093856    21Ag     0.095209     7B1g    0.095678  
       7B2g    0.095678     8B2u    0.097051     8B1u    0.097051  
       8B2g    0.097916     8B1g    0.097916    21B3u    0.106473  
      22Ag     0.117880    22B3u    0.129017    23Ag     0.139368  
      23B3u    0.148337    24Ag     0.155315    24B3u    0.159766  
      25Ag     0.396138    25B3u    0.397412    26Ag     0.399555  
      26B3u    0.402541    27Ag     0.406309    27B3u    0.410773  
      28Ag     0.415822    28B3u    0.421334    29Ag     0.427183  
      29B3u    0.433239    30Ag     0.439364     9B1u    0.442820  
       9B2u    0.442820     9B1g    0.443712     9B2g    0.443712  
      10B2u    0.445233    10B1u    0.445233    30B3u    0.445398  
      10B1g    0.447385    10B2g    0.447385    11B2u    0.450160  
      11B1u    0.450160    31Ag     0.451142    11B1g    0.453545  
      11B2g    0.453545    31B3u    0.456322    12B2u    0.457507  
      12B1u    0.457507    32Ag     0.460555    12B1g    0.461990  
      12B2g    0.461990    32B3u    0.464152    33Ag     0.464451  
      13B1u    0.466902    13B2u    0.466902    13B1g    0.472111  
      13B2g    0.472111    14B2u    0.477435    14B1u    0.477435  
      14B1g    0.482649    14B2g    0.482649    15B2u    0.487485  
      15B1u    0.487485    15B1g    0.491660    15B2g    0.491660  
      16B2u    0.494898    16B1u    0.494898    16B1g    0.496965  
      16B2g    0.496965    33B3u    0.524150    34Ag     0.527171  
      34B3u    0.531779    35Ag     0.537607    35B3u    0.544434  
      36Ag     0.552186    36B3u    0.560910    37Ag     0.570730  
      37B3u    0.581798    38Ag     0.594215    38B3u    0.607901  
      39Ag     0.622412    39B3u    0.636747    40Ag     0.649277  
      40B3u    0.657994  

    Final Occupation by Irrep:
             Ag   B1g   B2g   B3g    Au   B1u   B2u   B3u 
    DOCC [    16,    0,    0,    0,    0,    0,    0,   16 ]

  Energy converged.

  @RHF Final Energy:  -233.07219061219092

   => Energetics <=

    Nuclear Repulsion Energy =             71.6701879777393316
    One-Electron Energy =                -449.1927905314389022
    Two-Electron Energy =                 144.4504119415087189
    DFT Exchange-Correlation Energy =       0.0000000000000000
    Empirical Dispersion Energy =           0.0000000000000000
    PCM Polarization Energy =               0.0000000000000000
    EFP Energy =                            0.0000000000000000
    Total Energy =                       -233.0721906121908660


  Saving occupied orbitals to File 180.

*** tstop() called on chemistry.org at Mon Jan  8 10:58:48 2018
Module time:
	user time   =       2.12 seconds =       0.04 minutes
	system time =       0.19 seconds =       0.00 minutes
	total time  =          2 seconds =       0.03 minutes
Total time:
	user time   =       2.12 seconds =       0.04 minutes
	system time =       0.19 seconds =       0.00 minutes
	total time  =          2 seconds =       0.03 minutes


Properties will be evaluated at   0.000000,   0.000000,   0.000000 Bohr

Properties computed using the SCF density matrix

  Nuclear Dipole Moment: (a.u.)
     X:    -0.0000      Y:     0.0000      Z:     0.0000

  Electronic Dipole Moment: (a.u.)
     X:     0.0000      Y:     0.0000      Z:     0.0000

  Dipole Moment: (a.u.)
     X:    -0.0000      Y:     0.0000      Z:     0.0000     Total:     0.0000

  Dipole Moment: (Debye)
     X:    -0.0000      Y:     0.0000      Z:     0.0000     Total:     0.0000

 MINTS: Wrapper to libmints.
   by Justin Turney

   Calculation information:
      Number of atoms:                  16
      Number of AO shells:              80
      Number of SO shells:              40
      Number of primitives:            224
      Number of atomic orbitals:       144
      Number of basis functions:       144

      Number of irreps:                  8
      Integral cutoff                 0.00e+00
      Number of functions per irrep: [  40   16   16    0    0   16   16   40 ]

 OEINTS: Overlap, kinetic, potential, dipole, and quadrupole integrals
         stored in file 35.

      Computing two-electron integrals...done
      Computed 8040770 non-zero two-electron integrals.
        Stored in file 33.


*** tstart() called on chemistry.org
*** at Mon Jan  8 10:58:59 2018


	Wfn Parameters:
	--------------------
	Wavefunction         = CCSD_T
	Number of irreps     = 8
	Number of MOs        = 144
	Number of active MOs = 128
	AO-Basis             = NONE
	Semicanonical        = false
	Reference            = RHF
	Print Level          = 1

	IRREP	# MOs	# FZDC	# DOCC	# SOCC	# VIRT	# FZVR
	-----	-----	------	------	------	------	------
	 Ag	   40	    8	    8	    0	    24	    0
	 B1g	   16	    0	    0	    0	    16	    0
	 B2g	   16	    0	    0	    0	    16	    0
	 B3g	   0	    0	    0	    0	    0	    0
	 Au	   0	    0	    0	    0	    0	    0
	 B1u	   16	    0	    0	    0	    16	    0
	 B2u	   16	    0	    0	    0	    16	    0
	 B3u	   40	    8	    8	    0	    24	    0
	Transforming integrals...
	IWL integrals will be deleted.
	(OO|OO)...
	Presorting SO-basis two-electron integrals.
	Sorting File: SO Ints (nn|nn) nbuckets = 1
	Transforming the one-electron integrals and constructing Fock matrices
	Starting first half-transformation.
	Sorting half-transformed integrals.
	First half integral transformation complete.
	Starting second half-transformation.
	Two-electron integral transformation complete.
	(OO|OV)...
	Starting second half-transformation.
	Two-electron integral transformation complete.
	(OO|VV)...
	Starting second half-transformation.
	Two-electron integral transformation complete.
	(OV|OO)...
	Starting first half-transformation.
	Sorting half-transformed integrals.
	First half integral transformation complete.
	Starting second half-transformation.
	Two-electron integral transformation complete.
	(OV|OV)...
	Starting second half-transformation.
	Two-electron integral transformation complete.
	(OV|VV)...
	Starting second half-transformation.
	Two-electron integral transformation complete.
	(VV|OO)...
	Starting first half-transformation.
	Sorting half-transformed integrals.
	First half integral transformation complete.
	Starting second half-transformation.
	Two-electron integral transformation complete.
	(VV|OV)...
	Starting second half-transformation.
	Two-electron integral transformation complete.
	(VV|VV)...
	Starting second half-transformation.
	Two-electron integral transformation complete.
	Frozen core energy     =   -271.50790766152983

	Size of irrep 0 of <ab|cd> integrals:      4.735 (MW) /     37.880 (MB)
	Size of irrep 1 of <ab|cd> integrals:      2.359 (MW) /     18.874 (MB)
	Size of irrep 2 of <ab|cd> integrals:      2.359 (MW) /     18.874 (MB)
	Size of irrep 3 of <ab|cd> integrals:      1.049 (MW) /      8.389 (MB)
	Size of irrep 4 of <ab|cd> integrals:      1.049 (MW) /      8.389 (MB)
	Size of irrep 5 of <ab|cd> integrals:      2.359 (MW) /     18.874 (MB)
	Size of irrep 6 of <ab|cd> integrals:      2.359 (MW) /     18.874 (MB)
	Size of irrep 7 of <ab|cd> integrals:      4.735 (MW) /     37.880 (MB)
	Total:                                    21.004 (MW) /    168.034 (MB)

	Size of irrep 0 of <ia|bc> integrals:      0.836 (MW) /      6.685 (MB)
	Size of irrep 1 of <ia|bc> integrals:      0.393 (MW) /      3.146 (MB)
	Size of irrep 2 of <ia|bc> integrals:      0.393 (MW) /      3.146 (MB)
	Size of irrep 3 of <ia|bc> integrals:      0.000 (MW) /      0.000 (MB)
	Size of irrep 4 of <ia|bc> integrals:      0.000 (MW) /      0.000 (MB)
	Size of irrep 5 of <ia|bc> integrals:      0.393 (MW) /      3.146 (MB)
	Size of irrep 6 of <ia|bc> integrals:      0.393 (MW) /      3.146 (MB)
	Size of irrep 7 of <ia|bc> integrals:      0.836 (MW) /      6.685 (MB)
	Total:                                     3.244 (MW) /     25.952 (MB)

	Size of irrep 0 of tijab amplitudes:       0.279 (MW) /      2.228 (MB)
	Size of irrep 1 of tijab amplitudes:       0.000 (MW) /      0.000 (MB)
	Size of irrep 2 of tijab amplitudes:       0.000 (MW) /      0.000 (MB)
	Size of irrep 3 of tijab amplitudes:       0.000 (MW) /      0.000 (MB)
	Size of irrep 4 of tijab amplitudes:       0.000 (MW) /      0.000 (MB)
	Size of irrep 5 of tijab amplitudes:       0.000 (MW) /      0.000 (MB)
	Size of irrep 6 of tijab amplitudes:       0.000 (MW) /      0.000 (MB)
	Size of irrep 7 of tijab amplitudes:       0.279 (MW) /      2.228 (MB)
	Total:                                     0.557 (MW) /      4.456 (MB)

	Nuclear Rep. energy          =     71.67018797773932
	SCF energy                   =   -233.07219061219092
	One-electron energy          =    -56.82775892033530
	Two-electron energy          =     23.59328799193102
	Reference energy             =   -233.07219061219479

*** tstop() called on chemistry.org at Mon Jan  8 10:59:03 2018
Module time:
	user time   =       2.36 seconds =       0.04 minutes
	system time =       1.21 seconds =       0.02 minutes
	total time  =          4 seconds =       0.07 minutes
Total time:
	user time   =      15.16 seconds =       0.25 minutes
	system time =       1.52 seconds =       0.03 minutes
	total time  =         17 seconds =       0.28 minutes

*** tstart() called on chemistry.org
*** at Mon Jan  8 10:59:03 2018

            **************************
            *                        *
            *        CCENERGY        *
            *                        *
            **************************

    Nuclear Rep. energy (wfn)     =   71.670187977739317
    SCF energy          (wfn)     = -233.072190612190923
    Reference energy    (file100) = -233.072190612194788

    Input parameters:
    -----------------
    Wave function   =     CCSD_T
    Reference wfn   =     RHF
    Brueckner       =     No
    Memory (Mbytes) =     24000.0
    Maxiter         =     50
    R_Convergence   =     1.0e-07
    E_Convergence   =     1.0e-10
    Restart         =     Yes
    DIIS            =     Yes
    AO Basis        =     NONE
    ABCD            =     NEW
    Cache Level     =     2
    Cache Type      =     LOW
    Print Level     =     1
    Num. of threads =     1
    # Amps to Print =     10
    Print MP2 Amps? =     No
    Analyze T2 Amps =     No
    Print Pair Ener =     No
    Local CC        =     No
    SCS-MP2         =     False
    SCSN-MP2        =     False
    SCS-CCSD        =     False

MP2 correlation energy -0.3792509394352201
                Solving CC Amplitude Equations
                ------------------------------
  Iter             Energy              RMS        T1Diag      D1Diag    New D1Diag    D2Diag
  ----     ---------------------    ---------   ----------  ----------  ----------   --------
     0        -0.379250939435194    0.000e+00    0.000000    0.000000    0.000000    0.167983
     1        -0.559034854673895    3.331e-01    0.004451    0.006780    0.006780    0.252338
     2        -0.734740554060199    1.741e-01    0.011981    0.018866    0.018866    0.339809
     3        -0.731267453670263    1.570e-02    0.013215    0.021163    0.021163    0.339509
     4        -0.734887568948225    4.689e-03    0.013506    0.021736    0.021736    0.341353
     5        -0.735736844456069    9.650e-04    0.013598    0.021941    0.021941    0.341755
     6        -0.735189553518325    6.118e-04    0.013575    0.021905    0.021905    0.341478
     7        -0.735109764216735    7.887e-05    0.013572    0.021903    0.021903    0.341439
     8        -0.735134996519595    4.712e-05    0.013574    0.021906    0.021906    0.341452
     9        -0.735145748277913    1.588e-05    0.013574    0.021906    0.021906    0.341458
    10        -0.735145530066216    7.550e-06    0.013574    0.021906    0.021906    0.341458
    11        -0.735145184470363    4.445e-06    0.013574    0.021906    0.021906    0.341458
    12        -0.735145201422333    1.618e-06    0.013574    0.021906    0.021906    0.341458
    13        -0.735145258964818    8.397e-07    0.013574    0.021906    0.021906    0.341458
    14        -0.735145271528104    3.119e-07    0.013574    0.021906    0.021906    0.341458
    15        -0.735145272751708    1.340e-07    0.013574    0.021906    0.021906    0.341458
    16        -0.735145266796858    6.783e-08    0.013574    0.021906    0.021906    0.341458
    17        -0.735145265327350    2.380e-08    0.013574    0.021906    0.021906    0.341458
    18        -0.735145264286405    6.407e-09    0.013574    0.021906    0.021906    0.341458
    19        -0.735145263927860    3.032e-09    0.013574    0.021906    0.021906    0.341458
    20        -0.735145263930003    1.737e-09    0.013574    0.021906    0.021906    0.341458
    21        -0.735145263991530    9.689e-10    0.013574    0.021906    0.021906    0.341458

    Iterations converged.


    Largest TIA Amplitudes:
              0   8        -0.0178060677
              8  96         0.0174689013
              1   9         0.0169505473
              9  97         0.0163077975
              2  10         0.0155894049
             10  98         0.0148299929
              3  11         0.0140475104
             11  99         0.0132443168
             15 104        -0.0131011113
              7  17        -0.0124462158

    Largest TIjAb Amplitudes:
      8   8  88  88        -0.0180630682
      0   0   0   0        -0.0180567911
      1   1   1   1        -0.0177987471
     15  15  31  31        -0.0173989911
     15  15  47  47        -0.0173989911
      9   9  89  89        -0.0173885476
      0  15   0  95         0.0170385284
     15   0  95   0         0.0170385284
      7   7  63  63        -0.0170281158
      7   7  79  79        -0.0170281158

    SCF energy       (wfn)                    = -233.072190612190923
    Reference energy (file100)                = -233.072190612194788

    Opposite-spin MP2 correlation energy      =   -0.374743185889671
    Same-spin MP2 correlation energy          =   -0.004507753545523
    MP2 correlation energy                    =   -0.379250939435220
      * MP2 total energy                      = -233.451441551630012

    Opposite-spin CCSD correlation energy     =   -0.730319118944594
    Same-spin CCSD correlation energy         =   -0.004826148772230
    CCSD correlation energy                   =   -0.735145263991530
      * CCSD total energy                     = -233.807335876186329


*** tstop() called on chemistry.org at Mon Jan  8 10:59:12 2018
Module time:
	user time   =       5.76 seconds =       0.10 minutes
	system time =       2.84 seconds =       0.05 minutes
	total time  =          9 seconds =       0.15 minutes
Total time:
	user time   =      20.92 seconds =       0.35 minutes
	system time =       4.36 seconds =       0.07 minutes
	total time  =         26 seconds =       0.43 minutes

*** tstart() called on chemistry.org
*** at Mon Jan  8 10:59:12 2018

            **************************
            *                        *
            *        CCTRIPLES       *
            *                        *
            **************************


    Wave function   =    CCSD_T
    Reference wfn   =      RHF

    Nuclear Rep. energy (wfn)                =   71.670187977739317
    SCF energy          (wfn)                = -233.072190612190923
    Reference energy    (file100)            = -233.072190612194788
    CCSD energy         (file100)            =   -0.735145263991530
    Total CCSD energy   (file100)            = -233.807335876186329

    Number of ijk index combinations:              816
    Memory available in words        :      3000000000
    ~Words needed per explicit thread:           55296
    Number of threads for explicit ijk threading:    1

    (T) energy                                =   -0.000989182817812
      * CCSD(T) total energy                  = -233.808325059004119


*** tstop() called on chemistry.org at Mon Jan  8 10:59:23 2018
Module time:
	user time   =       9.58 seconds =       0.16 minutes
	system time =       1.84 seconds =       0.03 minutes
	total time  =         11 seconds =       0.18 minutes
Total time:
	user time   =      30.50 seconds =       0.51 minutes
	system time =       6.20 seconds =       0.10 minutes
	total time  =         37 seconds =       0.62 minutes

*** Psi4 exiting successfully. Buy a developer a beer!
