    -----------------------------------------------------------------------
          Psi4: An Open-Source Ab Initio Electronic Structure Package
                              Psi4 1.0.0 Driver

                          Git: Rev {master} 6a9a71b dirty

    J. M. Turney, A. C. Simmonett, R. M. Parrish, E. G. Hohenstein,
    F. A. Evangelista, J. T. Fermann, B. J. Mintz, L. A. Burns, J. J. Wilke,
    M. L. Abrams, N. J. Russ, M. L. Leininger, C. L. Janssen, E. T. Seidl,
    W. D. Allen, H. F. Schaefer, R. A. King, E. F. Valeev, C. D. Sherrill,
    and T. D. Crawford, WIREs Comput. Mol. Sci. 2, 556-565 (2012)
    (doi: 10.1002/wcms.93)

                         Additional Contributions by
    A. E. DePrince, U. Bozkaya, A. Yu. Sokolov, D. G. A. Smith, R. Di Remigio,
    R. M. Richard, J. F. Gonthier, H. R. McAlexander, M. Saitow, and
    B. P. Pritchard
    -----------------------------------------------------------------------


    Psi4 started on: Mon Jan  8 10:57:14 2018

    Process ID:  30489
    PSI4DATADIR: /home/yhliu/psi4conda/share/psi4
    Memory level set to 256.000 MB

  ==> Input File <==

--------------------------------------------------------------------------
memory 24 Gb
molecule beN {
0 1
Be   0.0    0.0 0.0
Be   4.5    0.0 0.0
Be   9.0    0.0 0.0
Be  13.5    0.0 0.0
Be  18.0    0.0 0.0
Be  22.5    0.0 0.0
Be  27.0    0.0 0.0
Be  31.5    0.0 0.0
Be  36.0    0.0 0.0
Be  40.5    0.0 0.0
units angstrom    
}

set basis 6-31g
set freeze_core true
set PRINT_BASIS True
set PUREAM False
set E_CONVERGENCE 1e-10
energy('ccsd(t)')
--------------------------------------------------------------------------
/home/yhliu/psi4conda/lib/python2.7/site-packages/v2rdm_casscf/v2rdm_casscf.so loaded.

  Memory set to  24.000 GiB by Python script.

*** tstart() called on chemistry.org
*** at Mon Jan  8 10:57:14 2018


         ---------------------------------------------------------
                                   SCF
            by Justin Turney, Rob Parrish, and Andy Simmonett
                              RHF Reference
                        1 Threads,  24000 MiB Core
         ---------------------------------------------------------

  ==> Geometry <==

    Molecular point group: d2h
    Full point group: D_inf_h

    Geometry (in Angstrom), charge = 0, multiplicity = 1:

       Center              X                  Y                   Z               Mass       
    ------------   -----------------  -----------------  -----------------  -----------------
          BE        -20.250000000000    -0.000000000000     0.000000000000     9.012182201000
          BE        -15.750000000000    -0.000000000000     0.000000000000     9.012182201000
          BE        -11.250000000000    -0.000000000000     0.000000000000     9.012182201000
          BE         -6.750000000000    -0.000000000000     0.000000000000     9.012182201000
          BE         -2.250000000000    -0.000000000000     0.000000000000     9.012182201000
          BE          2.250000000000     0.000000000000     0.000000000000     9.012182201000
          BE          6.750000000000     0.000000000000     0.000000000000     9.012182201000
          BE         11.250000000000     0.000000000000     0.000000000000     9.012182201000
          BE         15.750000000000     0.000000000000     0.000000000000     9.012182201000
          BE         20.250000000000     0.000000000000     0.000000000000     9.012182201000

  Running in d2h symmetry.

  Rotational constants: A = ************  B =      0.00112  C =      0.00112 [cm^-1]
  Rotational constants: A = ************  B =     33.56667  C =     33.56667 [MHz]
  Nuclear repulsion =   36.293903505551881

  Charge       = 0
  Multiplicity = 1
  Electrons    = 40
  Nalpha       = 20
  Nbeta        = 20

  ==> Algorithm <==

  SCF Algorithm Type is PK.
  DIIS enabled.
  MOM disabled.
  Fractional occupation disabled.
  Guess Type is SAD.
  Energy threshold   = 1.00e-10
  Density threshold  = 1.00e-08
  Integral threshold = 0.00e+00

  ==> Primary Basis <==

  Basis Set: 6-31G
    Number of shells: 50
    Number of basis function: 90
    Number of Cartesian functions: 90
    Spherical Harmonics?: false
    Max angular momentum: 1

  -AO BASIS SET INFORMATION:
    Name                   = 6-31G
    Total number of shells = 50
    Number of primitives   = 140
    Number of AO           = 90
    Number of SO           = 90
    Maximum AM             = 1
    Spherical Harmonics    = FALSE

  -Contraction Scheme:
    Atom   Type   All Primitives // Shells:
   ------ ------ --------------------------
       1    BE     10s 4p // 3s 2p 
       2    BE     10s 4p // 3s 2p 
       3    BE     10s 4p // 3s 2p 
       4    BE     10s 4p // 3s 2p 
       5    BE     10s 4p // 3s 2p 
       6    BE     10s 4p // 3s 2p 
       7    BE     10s 4p // 3s 2p 
       8    BE     10s 4p // 3s 2p 
       9    BE     10s 4p // 3s 2p 
      10    BE     10s 4p // 3s 2p 

  ==> AO Basis Functions <==

    [ 6-31G ]
    cartesian
    ****
   BE   1
    S   6 1.00
                      1264.58570000           0.00194480
                       189.93681000           0.01483510
                        43.15908900           0.07209060
                        12.09866300           0.23715420
                         3.80632320           0.46919870
                         1.27289030           0.35652020
    S   3 1.00
                         3.19646310          -0.11264870
                         0.74781330          -0.22950640
                         0.21996630           1.18691670
    P   3 1.00
                         3.19646310           0.05598020
                         0.74781330           0.26155060
                         0.21996630           0.79397230
    S   1 1.00
                         0.08230990           1.00000000
    P   1 1.00
                         0.08230990           1.00000000
    ****
   BE   2
    S   6 1.00
                      1264.58570000           0.00194480
                       189.93681000           0.01483510
                        43.15908900           0.07209060
                        12.09866300           0.23715420
                         3.80632320           0.46919870
                         1.27289030           0.35652020
    S   3 1.00
                         3.19646310          -0.11264870
                         0.74781330          -0.22950640
                         0.21996630           1.18691670
    P   3 1.00
                         3.19646310           0.05598020
                         0.74781330           0.26155060
                         0.21996630           0.79397230
    S   1 1.00
                         0.08230990           1.00000000
    P   1 1.00
                         0.08230990           1.00000000
    ****
   BE   3
    S   6 1.00
                      1264.58570000           0.00194480
                       189.93681000           0.01483510
                        43.15908900           0.07209060
                        12.09866300           0.23715420
                         3.80632320           0.46919870
                         1.27289030           0.35652020
    S   3 1.00
                         3.19646310          -0.11264870
                         0.74781330          -0.22950640
                         0.21996630           1.18691670
    P   3 1.00
                         3.19646310           0.05598020
                         0.74781330           0.26155060
                         0.21996630           0.79397230
    S   1 1.00
                         0.08230990           1.00000000
    P   1 1.00
                         0.08230990           1.00000000
    ****
   BE   4
    S   6 1.00
                      1264.58570000           0.00194480
                       189.93681000           0.01483510
                        43.15908900           0.07209060
                        12.09866300           0.23715420
                         3.80632320           0.46919870
                         1.27289030           0.35652020
    S   3 1.00
                         3.19646310          -0.11264870
                         0.74781330          -0.22950640
                         0.21996630           1.18691670
    P   3 1.00
                         3.19646310           0.05598020
                         0.74781330           0.26155060
                         0.21996630           0.79397230
    S   1 1.00
                         0.08230990           1.00000000
    P   1 1.00
                         0.08230990           1.00000000
    ****
   BE   5
    S   6 1.00
                      1264.58570000           0.00194480
                       189.93681000           0.01483510
                        43.15908900           0.07209060
                        12.09866300           0.23715420
                         3.80632320           0.46919870
                         1.27289030           0.35652020
    S   3 1.00
                         3.19646310          -0.11264870
                         0.74781330          -0.22950640
                         0.21996630           1.18691670
    P   3 1.00
                         3.19646310           0.05598020
                         0.74781330           0.26155060
                         0.21996630           0.79397230
    S   1 1.00
                         0.08230990           1.00000000
    P   1 1.00
                         0.08230990           1.00000000
    ****

  ==> Pre-Iterations <==

   -------------------------------------------------------
    Irrep   Nso     Nmo     Nalpha   Nbeta   Ndocc  Nsocc
   -------------------------------------------------------
     Ag        25      25       0       0       0       0
     B1g       10      10       0       0       0       0
     B2g       10      10       0       0       0       0
     B3g        0       0       0       0       0       0
     Au         0       0       0       0       0       0
     B1u       10      10       0       0       0       0
     B2u       10      10       0       0       0       0
     B3u       25      25       0       0       0       0
   -------------------------------------------------------
    Total      90      90      20      20      20       0
   -------------------------------------------------------

  ==> Integral Setup <==

  Using in-core PK algorithm.
   Calculation information:
      Number of atoms:                  10
      Number of AO shells:              50
      Number of primitives:            140
      Number of atomic orbitals:        90
      Number of basis functions:        90

      Integral cutoff                 1.00e-12
      Number of threads:                 1

  Performing in-core PK
  Using 16773120 doubles for integral storage.
  We computed 112232 shell quartets total.
  Whereas there are 813450 unique shell quartets.
  ==> DiskJK: Disk-Based J/K Matrices <==

    J tasked:                  Yes
    K tasked:                  Yes
    wK tasked:                  No
    Memory (MB):             17166
    Schwarz Cutoff:          1E-12

    OpenMP threads:              1
  Minimum eigenvalue in the overlap matrix is 1.0047401166E-01.
  Using Symmetric Orthogonalization.
  SCF Guess: Superposition of Atomic Densities via on-the-fly atomic UHF.

  ==> Iterations <==

                        Total Energy        Delta E     RMS |[F,P]|

   @RHF iter   0:  -145.67577708702868   -1.45676e+02   1.23455e-03 
   @RHF iter   1:  -145.66958657013663    6.19052e-03   2.73697e-04 
   @RHF iter   2:  -145.66997488402865   -3.88314e-04   9.01603e-05 DIIS
   @RHF iter   3:  -145.67002541719444   -5.05332e-05   4.63394e-06 DIIS
   @RHF iter   4:  -145.67002551251517   -9.53207e-08   2.79704e-07 DIIS
   @RHF iter   5:  -145.67002551275465   -2.39481e-10   4.41295e-08 DIIS
   @RHF iter   6:  -145.67002551276124   -6.59384e-12   3.87767e-09 DIIS

  ==> Post-Iterations <==

    Orbital Energies (a.u.)
    -----------------------

    Doubly Occupied:                                                      

       1B3u   -4.708048     1Ag    -4.708048     2B3u   -4.707933  
       2Ag    -4.707933     3B3u   -4.707894     3Ag    -4.707894  
       4B3u   -4.707883     4Ag    -4.707880     5B3u   -4.707377  
       5Ag    -4.707377     6Ag    -0.317048     6B3u   -0.315403  
       7Ag    -0.312667     7B3u   -0.308982     8Ag    -0.304559  
       8B3u   -0.299684     9Ag    -0.294719     9B3u   -0.290094  
      10Ag    -0.286275    10B3u   -0.283703  

    Virtual:                                                              

      11Ag     0.039222    11B3u    0.044860    12Ag     0.054024  
      12B3u    0.066268     1B1u    0.068568     1B2u    0.068568  
       1B2g    0.070142     1B1g    0.070142     2B1u    0.072729  
       2B2u    0.072729     2B2g    0.076149     2B1g    0.076149  
       3B1u    0.080157     3B2u    0.080157    13Ag     0.081050  
       3B2g    0.084450     3B1g    0.084450     4B1u    0.088676  
       4B2u    0.088676     4B2g    0.092473     4B1g    0.092473  
       5B1u    0.095503     5B2u    0.095503     5B2g    0.097491  
       5B1g    0.097491    13B3u    0.097712    14Ag     0.115341  
      14B3u    0.132557    15Ag     0.147402    15B3u    0.157615  
      16Ag     0.396775    16B3u    0.400012    17Ag     0.405287  
      17B3u    0.412263    18Ag     0.420505    18B3u    0.429561  
      19Ag     0.438982     6B1u    0.443212     6B2u    0.443212  
       6B2g    0.445381     6B1g    0.445381    19B3u    0.448257  
       7B1u    0.449070     7B2u    0.449070     7B2g    0.454233  
       7B1g    0.454233    20Ag     0.456658     8B1u    0.460743  
       8B2u    0.460743    20B3u    0.463524    21Ag     0.464741  
       8B2g    0.468325     8B1g    0.468325     9B1u    0.476483  
       9B2u    0.476483     9B2g    0.484462     9B1g    0.484462  
      10B1u    0.491297    10B2u    0.491297    10B2g    0.495978  
      10B1g    0.495978    21B3u    0.525687    22Ag     0.532711  
      22B3u    0.542810    23Ag     0.555394    23B3u    0.570652  
      24Ag     0.589125    24B3u    0.610899    25Ag     0.634108  
      25B3u    0.653386  

    Final Occupation by Irrep:
             Ag   B1g   B2g   B3g    Au   B1u   B2u   B3u 
    DOCC [    10,    0,    0,    0,    0,    0,    0,   10 ]

  Energy converged.

  @RHF Final Energy:  -145.67002551276124

   => Energetics <=

    Nuclear Repulsion Energy =             36.2939035055518815
    One-Electron Energy =                -263.7450479760550479
    Two-Electron Energy =                  81.7811189577418816
    DFT Exchange-Correlation Energy =       0.0000000000000000
    Empirical Dispersion Energy =           0.0000000000000000
    PCM Polarization Energy =               0.0000000000000000
    EFP Energy =                            0.0000000000000000
    Total Energy =                       -145.6700255127612706


  Saving occupied orbitals to File 180.

*** tstop() called on chemistry.org at Mon Jan  8 10:57:15 2018
Module time:
	user time   =       0.73 seconds =       0.01 minutes
	system time =       0.05 seconds =       0.00 minutes
	total time  =          1 seconds =       0.02 minutes
Total time:
	user time   =       0.73 seconds =       0.01 minutes
	system time =       0.05 seconds =       0.00 minutes
	total time  =          1 seconds =       0.02 minutes


Properties will be evaluated at   0.000000,   0.000000,   0.000000 Bohr

Properties computed using the SCF density matrix

  Nuclear Dipole Moment: (a.u.)
     X:    -0.0000      Y:     0.0000      Z:     0.0000

  Electronic Dipole Moment: (a.u.)
     X:     0.0000      Y:     0.0000      Z:     0.0000

  Dipole Moment: (a.u.)
     X:    -0.0000      Y:     0.0000      Z:     0.0000     Total:     0.0000

  Dipole Moment: (Debye)
     X:    -0.0000      Y:     0.0000      Z:     0.0000     Total:     0.0000

 MINTS: Wrapper to libmints.
   by Justin Turney

   Calculation information:
      Number of atoms:                  10
      Number of AO shells:              50
      Number of SO shells:              25
      Number of primitives:            140
      Number of atomic orbitals:        90
      Number of basis functions:        90

      Number of irreps:                  8
      Integral cutoff                 0.00e+00
      Number of functions per irrep: [  25   10   10    0    0   10   10   25 ]

 OEINTS: Overlap, kinetic, potential, dipole, and quadrupole integrals
         stored in file 35.

      Computing two-electron integrals...done
      Computed 1257402 non-zero two-electron integrals.
        Stored in file 33.


*** tstart() called on chemistry.org
*** at Mon Jan  8 10:57:17 2018


	Wfn Parameters:
	--------------------
	Wavefunction         = CCSD_T
	Number of irreps     = 8
	Number of MOs        = 90
	Number of active MOs = 80
	AO-Basis             = NONE
	Semicanonical        = false
	Reference            = RHF
	Print Level          = 1

	IRREP	# MOs	# FZDC	# DOCC	# SOCC	# VIRT	# FZVR
	-----	-----	------	------	------	------	------
	 Ag	   25	    5	    5	    0	    15	    0
	 B1g	   10	    0	    0	    0	    10	    0
	 B2g	   10	    0	    0	    0	    10	    0
	 B3g	   0	    0	    0	    0	    0	    0
	 Au	   0	    0	    0	    0	    0	    0
	 B1u	   10	    0	    0	    0	    10	    0
	 B2u	   10	    0	    0	    0	    10	    0
	 B3u	   25	    5	    5	    0	    15	    0
	Transforming integrals...
	IWL integrals will be deleted.
	(OO|OO)...
	Presorting SO-basis two-electron integrals.
	Sorting File: SO Ints (nn|nn) nbuckets = 1
	Transforming the one-electron integrals and constructing Fock matrices
	Starting first half-transformation.
	Sorting half-transformed integrals.
	First half integral transformation complete.
	Starting second half-transformation.
	Two-electron integral transformation complete.
	(OO|OV)...
	Starting second half-transformation.
	Two-electron integral transformation complete.
	(OO|VV)...
	Starting second half-transformation.
	Two-electron integral transformation complete.
	(OV|OO)...
	Starting first half-transformation.
	Sorting half-transformed integrals.
	First half integral transformation complete.
	Starting second half-transformation.
	Two-electron integral transformation complete.
	(OV|OV)...
	Starting second half-transformation.
	Two-electron integral transformation complete.
	(OV|VV)...
	Starting second half-transformation.
	Two-electron integral transformation complete.
	(VV|OO)...
	Starting first half-transformation.
	Sorting half-transformed integrals.
	First half integral transformation complete.
	Starting second half-transformation.
	Two-electron integral transformation complete.
	(VV|OV)...
	Starting second half-transformation.
	Two-electron integral transformation complete.
	(VV|VV)...
	Starting second half-transformation.
	Two-electron integral transformation complete.
	Frozen core energy     =   -163.31746993272995

	Size of irrep 0 of <ab|cd> integrals:      0.722 (MW) /      5.780 (MB)
	Size of irrep 1 of <ab|cd> integrals:      0.360 (MW) /      2.880 (MB)
	Size of irrep 2 of <ab|cd> integrals:      0.360 (MW) /      2.880 (MB)
	Size of irrep 3 of <ab|cd> integrals:      0.160 (MW) /      1.280 (MB)
	Size of irrep 4 of <ab|cd> integrals:      0.160 (MW) /      1.280 (MB)
	Size of irrep 5 of <ab|cd> integrals:      0.360 (MW) /      2.880 (MB)
	Size of irrep 6 of <ab|cd> integrals:      0.360 (MW) /      2.880 (MB)
	Size of irrep 7 of <ab|cd> integrals:      0.722 (MW) /      5.780 (MB)
	Total:                                     3.205 (MW) /     25.640 (MB)

	Size of irrep 0 of <ia|bc> integrals:      0.128 (MW) /      1.020 (MB)
	Size of irrep 1 of <ia|bc> integrals:      0.060 (MW) /      0.480 (MB)
	Size of irrep 2 of <ia|bc> integrals:      0.060 (MW) /      0.480 (MB)
	Size of irrep 3 of <ia|bc> integrals:      0.000 (MW) /      0.000 (MB)
	Size of irrep 4 of <ia|bc> integrals:      0.000 (MW) /      0.000 (MB)
	Size of irrep 5 of <ia|bc> integrals:      0.060 (MW) /      0.480 (MB)
	Size of irrep 6 of <ia|bc> integrals:      0.060 (MW) /      0.480 (MB)
	Size of irrep 7 of <ia|bc> integrals:      0.128 (MW) /      1.020 (MB)
	Total:                                     0.495 (MW) /      3.960 (MB)

	Size of irrep 0 of tijab amplitudes:       0.042 (MW) /      0.340 (MB)
	Size of irrep 1 of tijab amplitudes:       0.000 (MW) /      0.000 (MB)
	Size of irrep 2 of tijab amplitudes:       0.000 (MW) /      0.000 (MB)
	Size of irrep 3 of tijab amplitudes:       0.000 (MW) /      0.000 (MB)
	Size of irrep 4 of tijab amplitudes:       0.000 (MW) /      0.000 (MB)
	Size of irrep 5 of tijab amplitudes:       0.000 (MW) /      0.000 (MB)
	Size of irrep 6 of tijab amplitudes:       0.000 (MW) /      0.000 (MB)
	Size of irrep 7 of tijab amplitudes:       0.042 (MW) /      0.340 (MB)
	Total:                                     0.085 (MW) /      0.680 (MB)

	Nuclear Rep. energy          =     36.29390350555188
	SCF energy                   =   -145.67002551276124
	One-electron energy          =    -31.26664746178169
	Two-electron energy          =     12.62018837619705
	Reference energy             =   -145.67002551276269

*** tstop() called on chemistry.org at Mon Jan  8 10:57:18 2018
Module time:
	user time   =       0.35 seconds =       0.01 minutes
	system time =       0.18 seconds =       0.00 minutes
	total time  =          1 seconds =       0.02 minutes
Total time:
	user time   =       2.83 seconds =       0.05 minutes
	system time =       0.24 seconds =       0.00 minutes
	total time  =          4 seconds =       0.07 minutes

*** tstart() called on chemistry.org
*** at Mon Jan  8 10:57:18 2018

            **************************
            *                        *
            *        CCENERGY        *
            *                        *
            **************************

    Nuclear Rep. energy (wfn)     =   36.293903505551881
    SCF energy          (wfn)     = -145.670025512761242
    Reference energy    (file100) = -145.670025512762692

    Input parameters:
    -----------------
    Wave function   =     CCSD_T
    Reference wfn   =     RHF
    Brueckner       =     No
    Memory (Mbytes) =     24000.0
    Maxiter         =     50
    R_Convergence   =     1.0e-07
    E_Convergence   =     1.0e-10
    Restart         =     Yes
    DIIS            =     Yes
    AO Basis        =     NONE
    ABCD            =     NEW
    Cache Level     =     2
    Cache Type      =     LOW
    Print Level     =     1
    Num. of threads =     1
    # Amps to Print =     10
    Print MP2 Amps? =     No
    Analyze T2 Amps =     No
    Print Pair Ener =     No
    Local CC        =     No
    SCS-MP2         =     False
    SCSN-MP2        =     False
    SCS-CCSD        =     False

MP2 correlation energy -0.2368412847910303
                Solving CC Amplitude Equations
                ------------------------------
  Iter             Energy              RMS        T1Diag      D1Diag    New D1Diag    D2Diag
  ----     ---------------------    ---------   ----------  ----------  ----------   --------
     0        -0.236841284791024    0.000e+00    0.000000    0.000000    0.000000    0.167796
     1        -0.349237626870229    2.635e-01    0.004457    0.006765    0.006765    0.252077
     2        -0.459280479196153    1.378e-01    0.011971    0.018744    0.018744    0.339579
     3        -0.457052989814958    1.227e-02    0.013169    0.020969    0.020969    0.339230
     4        -0.459308029123325    3.670e-03    0.013452    0.021525    0.021525    0.341068
     5        -0.459835726444846    7.492e-04    0.013541    0.021726    0.021726    0.341474
     6        -0.459492344160687    4.820e-04    0.013517    0.021690    0.021690    0.341198
     7        -0.459444026004444    6.105e-05    0.013515    0.021689    0.021689    0.341161
     8        -0.459460771918292    3.831e-05    0.013517    0.021692    0.021692    0.341175
     9        -0.459467501570206    1.248e-05    0.013517    0.021693    0.021693    0.341181
    10        -0.459467366350975    5.894e-06    0.013517    0.021692    0.021692    0.341181
    11        -0.459467155114139    3.496e-06    0.013517    0.021692    0.021692    0.341181
    12        -0.459467168402034    1.264e-06    0.013517    0.021692    0.021692    0.341181
    13        -0.459467203919256    6.531e-07    0.013517    0.021692    0.021692    0.341181
    14        -0.459467211456939    2.423e-07    0.013517    0.021692    0.021692    0.341181
    15        -0.459467212091069    1.050e-07    0.013517    0.021692    0.021692    0.341181
    16        -0.459467208511906    5.338e-08    0.013517    0.021692    0.021692    0.341181
    17        -0.459467207551081    1.863e-08    0.013517    0.021692    0.021692    0.341181
    18        -0.459467206926972    4.979e-09    0.013517    0.021692    0.021692    0.341181
    19        -0.459467206718219    2.353e-09    0.013517    0.021692    0.021692    0.341181
    20        -0.459467206725812    1.334e-09    0.013517    0.021692    0.021692    0.341181
    21        -0.459467206763815    7.435e-10    0.013517    0.021692    0.021692    0.341181

    Iterations converged.


    Largest TIA Amplitudes:
              0   5         0.0176618574
              5  60         0.0169695864
              1   6         0.0159897066
              6  61         0.0148758618
              2   7         0.0136935691
              9  65        -0.0127471013
              7  62         0.0124254496
              4  11        -0.0113721751
              3   2        -0.0112427613
              7  57         0.0111445536

    Largest TIjAb Amplitudes:
      0   0   0   0        -0.0278371463
      5   5  55  55        -0.0274373066
      9   9  19  19        -0.0265583065
      9   9  29  29        -0.0265583065
      1   1   1   1        -0.0264252361
      0   9   0  59         0.0262189337
      9   0  59   0         0.0262189337
      4   4  39  39        -0.0257676907
      4   4  49  49        -0.0257676907
      4   5   4  55         0.0256545021

    SCF energy       (wfn)                    = -145.670025512761242
    Reference energy (file100)                = -145.670025512762692

    Opposite-spin MP2 correlation energy      =   -0.234143947918265
    Same-spin MP2 correlation energy          =   -0.002697336872759
    MP2 correlation energy                    =   -0.236841284791030
      * MP2 total energy                      = -145.906866797553732

    Opposite-spin CCSD correlation energy     =   -0.456580071332544
    Same-spin CCSD correlation energy         =   -0.002887137461750
    CCSD correlation energy                   =   -0.459467206763815
      * CCSD total energy                     = -146.129492719526496


*** tstop() called on chemistry.org at Mon Jan  8 10:57:19 2018
Module time:
	user time   =       0.79 seconds =       0.01 minutes
	system time =       0.54 seconds =       0.01 minutes
	total time  =          1 seconds =       0.02 minutes
Total time:
	user time   =       3.62 seconds =       0.06 minutes
	system time =       0.78 seconds =       0.01 minutes
	total time  =          5 seconds =       0.08 minutes

*** tstart() called on chemistry.org
*** at Mon Jan  8 10:57:19 2018

            **************************
            *                        *
            *        CCTRIPLES       *
            *                        *
            **************************


    Wave function   =    CCSD_T
    Reference wfn   =      RHF

    Nuclear Rep. energy (wfn)                =   36.293903505551881
    SCF energy          (wfn)                = -145.670025512761242
    Reference energy    (file100)            = -145.670025512762692
    CCSD energy         (file100)            =   -0.459467206763815
    Total CCSD energy   (file100)            = -146.129492719526496

    Number of ijk index combinations:              220
    Memory available in words        :      3000000000
    ~Words needed per explicit thread:           13500
    Number of threads for explicit ijk threading:    1

    (T) energy                                =   -0.000591233552050
      * CCSD(T) total energy                  = -146.130083953078554


*** tstop() called on chemistry.org at Mon Jan  8 10:57:20 2018
Module time:
	user time   =       0.62 seconds =       0.01 minutes
	system time =       0.12 seconds =       0.00 minutes
	total time  =          1 seconds =       0.02 minutes
Total time:
	user time   =       4.24 seconds =       0.07 minutes
	system time =       0.90 seconds =       0.01 minutes
	total time  =          6 seconds =       0.10 minutes

*** Psi4 exiting successfully. Buy a developer a beer!
