    -----------------------------------------------------------------------
          Psi4: An Open-Source Ab Initio Electronic Structure Package
                              Psi4 1.0.0 Driver

                          Git: Rev {master} 6a9a71b dirty

    J. M. Turney, A. C. Simmonett, R. M. Parrish, E. G. Hohenstein,
    F. A. Evangelista, J. T. Fermann, B. J. Mintz, L. A. Burns, J. J. Wilke,
    M. L. Abrams, N. J. Russ, M. L. Leininger, C. L. Janssen, E. T. Seidl,
    W. D. Allen, H. F. Schaefer, R. A. King, E. F. Valeev, C. D. Sherrill,
    and T. D. Crawford, WIREs Comput. Mol. Sci. 2, 556-565 (2012)
    (doi: 10.1002/wcms.93)

                         Additional Contributions by
    A. E. DePrince, U. Bozkaya, A. Yu. Sokolov, D. G. A. Smith, R. Di Remigio,
    R. M. Richard, J. F. Gonthier, H. R. McAlexander, M. Saitow, and
    B. P. Pritchard
    -----------------------------------------------------------------------


    Psi4 started on: Mon Jan  8 10:57:20 2018

    Process ID:  30500
    PSI4DATADIR: /home/yhliu/psi4conda/share/psi4
    Memory level set to 256.000 MB

  ==> Input File <==

--------------------------------------------------------------------------
memory 24 Gb
molecule beN {
0 1
Be   0.0    0.0 0.0
Be   4.5    0.0 0.0
Be   9.0    0.0 0.0
Be  13.5    0.0 0.0
Be  18.0    0.0 0.0
Be  22.5    0.0 0.0
Be  27.0    0.0 0.0
Be  31.5    0.0 0.0
Be  36.0    0.0 0.0
Be  40.5    0.0 0.0
Be  45.0    0.0 0.0
units angstrom    
}

set basis 6-31g
set freeze_core true
set PRINT_BASIS True
set PUREAM False
set E_CONVERGENCE 1e-10
energy('ccsd(t)')
--------------------------------------------------------------------------
/home/yhliu/psi4conda/lib/python2.7/site-packages/v2rdm_casscf/v2rdm_casscf.so loaded.

  Memory set to  24.000 GiB by Python script.

*** tstart() called on chemistry.org
*** at Mon Jan  8 10:57:20 2018


         ---------------------------------------------------------
                                   SCF
            by Justin Turney, Rob Parrish, and Andy Simmonett
                              RHF Reference
                        1 Threads,  24000 MiB Core
         ---------------------------------------------------------

  ==> Geometry <==

    Molecular point group: d2h
    Full point group: D_inf_h

    Geometry (in Angstrom), charge = 0, multiplicity = 1:

       Center              X                  Y                   Z               Mass       
    ------------   -----------------  -----------------  -----------------  -----------------
          BE        -22.500000000000    -0.000000000000     0.000000000000     9.012182201000
          BE        -18.000000000000    -0.000000000000     0.000000000000     9.012182201000
          BE        -13.500000000000    -0.000000000000     0.000000000000     9.012182201000
          BE         -9.000000000000    -0.000000000000     0.000000000000     9.012182201000
          BE         -4.500000000000    -0.000000000000     0.000000000000     9.012182201000
          BE          0.000000000000    -0.000000000000     0.000000000000     9.012182201000
          BE          4.500000000000     0.000000000000     0.000000000000     9.012182201000
          BE          9.000000000000     0.000000000000     0.000000000000     9.012182201000
          BE         13.500000000000     0.000000000000     0.000000000000     9.012182201000
          BE         18.000000000000     0.000000000000     0.000000000000     9.012182201000
          BE         22.500000000000     0.000000000000     0.000000000000     9.012182201000

  Running in d2h symmetry.

  Rotational constants: A = ************  B =      0.00084  C =      0.00084 [cm^-1]
  Rotational constants: A = ************  B =     25.17500  C =     25.17500 [MHz]
  Nuclear repulsion =   41.804812819982622

  Charge       = 0
  Multiplicity = 1
  Electrons    = 44
  Nalpha       = 22
  Nbeta        = 22

  ==> Algorithm <==

  SCF Algorithm Type is PK.
  DIIS enabled.
  MOM disabled.
  Fractional occupation disabled.
  Guess Type is SAD.
  Energy threshold   = 1.00e-10
  Density threshold  = 1.00e-08
  Integral threshold = 0.00e+00

  ==> Primary Basis <==

  Basis Set: 6-31G
    Number of shells: 55
    Number of basis function: 99
    Number of Cartesian functions: 99
    Spherical Harmonics?: false
    Max angular momentum: 1

  -AO BASIS SET INFORMATION:
    Name                   = 6-31G
    Total number of shells = 55
    Number of primitives   = 154
    Number of AO           = 99
    Number of SO           = 99
    Maximum AM             = 1
    Spherical Harmonics    = FALSE

  -Contraction Scheme:
    Atom   Type   All Primitives // Shells:
   ------ ------ --------------------------
       1    BE     10s 4p // 3s 2p 
       2    BE     10s 4p // 3s 2p 
       3    BE     10s 4p // 3s 2p 
       4    BE     10s 4p // 3s 2p 
       5    BE     10s 4p // 3s 2p 
       6    BE     10s 4p // 3s 2p 
       7    BE     10s 4p // 3s 2p 
       8    BE     10s 4p // 3s 2p 
       9    BE     10s 4p // 3s 2p 
      10    BE     10s 4p // 3s 2p 
      11    BE     10s 4p // 3s 2p 

  ==> AO Basis Functions <==

    [ 6-31G ]
    cartesian
    ****
   BE   1
    S   6 1.00
                      1264.58570000           0.00194480
                       189.93681000           0.01483510
                        43.15908900           0.07209060
                        12.09866300           0.23715420
                         3.80632320           0.46919870
                         1.27289030           0.35652020
    S   3 1.00
                         3.19646310          -0.11264870
                         0.74781330          -0.22950640
                         0.21996630           1.18691670
    P   3 1.00
                         3.19646310           0.05598020
                         0.74781330           0.26155060
                         0.21996630           0.79397230
    S   1 1.00
                         0.08230990           1.00000000
    P   1 1.00
                         0.08230990           1.00000000
    ****
   BE   2
    S   6 1.00
                      1264.58570000           0.00194480
                       189.93681000           0.01483510
                        43.15908900           0.07209060
                        12.09866300           0.23715420
                         3.80632320           0.46919870
                         1.27289030           0.35652020
    S   3 1.00
                         3.19646310          -0.11264870
                         0.74781330          -0.22950640
                         0.21996630           1.18691670
    P   3 1.00
                         3.19646310           0.05598020
                         0.74781330           0.26155060
                         0.21996630           0.79397230
    S   1 1.00
                         0.08230990           1.00000000
    P   1 1.00
                         0.08230990           1.00000000
    ****
   BE   3
    S   6 1.00
                      1264.58570000           0.00194480
                       189.93681000           0.01483510
                        43.15908900           0.07209060
                        12.09866300           0.23715420
                         3.80632320           0.46919870
                         1.27289030           0.35652020
    S   3 1.00
                         3.19646310          -0.11264870
                         0.74781330          -0.22950640
                         0.21996630           1.18691670
    P   3 1.00
                         3.19646310           0.05598020
                         0.74781330           0.26155060
                         0.21996630           0.79397230
    S   1 1.00
                         0.08230990           1.00000000
    P   1 1.00
                         0.08230990           1.00000000
    ****
   BE   4
    S   6 1.00
                      1264.58570000           0.00194480
                       189.93681000           0.01483510
                        43.15908900           0.07209060
                        12.09866300           0.23715420
                         3.80632320           0.46919870
                         1.27289030           0.35652020
    S   3 1.00
                         3.19646310          -0.11264870
                         0.74781330          -0.22950640
                         0.21996630           1.18691670
    P   3 1.00
                         3.19646310           0.05598020
                         0.74781330           0.26155060
                         0.21996630           0.79397230
    S   1 1.00
                         0.08230990           1.00000000
    P   1 1.00
                         0.08230990           1.00000000
    ****
   BE   5
    S   6 1.00
                      1264.58570000           0.00194480
                       189.93681000           0.01483510
                        43.15908900           0.07209060
                        12.09866300           0.23715420
                         3.80632320           0.46919870
                         1.27289030           0.35652020
    S   3 1.00
                         3.19646310          -0.11264870
                         0.74781330          -0.22950640
                         0.21996630           1.18691670
    P   3 1.00
                         3.19646310           0.05598020
                         0.74781330           0.26155060
                         0.21996630           0.79397230
    S   1 1.00
                         0.08230990           1.00000000
    P   1 1.00
                         0.08230990           1.00000000
    ****
   BE   6
    S   6 1.00
                      1264.58570000           0.00194480
                       189.93681000           0.01483510
                        43.15908900           0.07209060
                        12.09866300           0.23715420
                         3.80632320           0.46919870
                         1.27289030           0.35652020
    S   3 1.00
                         3.19646310          -0.11264870
                         0.74781330          -0.22950640
                         0.21996630           1.18691670
    P   3 1.00
                         3.19646310           0.05598020
                         0.74781330           0.26155060
                         0.21996630           0.79397230
    S   1 1.00
                         0.08230990           1.00000000
    P   1 1.00
                         0.08230990           1.00000000
    ****

  ==> Pre-Iterations <==

   -------------------------------------------------------
    Irrep   Nso     Nmo     Nalpha   Nbeta   Ndocc  Nsocc
   -------------------------------------------------------
     Ag        28      28       0       0       0       0
     B1g       10      10       0       0       0       0
     B2g       10      10       0       0       0       0
     B3g        0       0       0       0       0       0
     Au         0       0       0       0       0       0
     B1u       12      12       0       0       0       0
     B2u       12      12       0       0       0       0
     B3u       27      27       0       0       0       0
   -------------------------------------------------------
    Total      99      99      22      22      22       0
   -------------------------------------------------------

  ==> Integral Setup <==

  Using in-core PK algorithm.
   Calculation information:
      Number of atoms:                  11
      Number of AO shells:              55
      Number of primitives:            154
      Number of atomic orbitals:        99
      Number of basis functions:        99

      Integral cutoff                 1.00e-12
      Number of threads:                 1

  Performing in-core PK
  Using 24507450 doubles for integral storage.
  We computed 138387 shell quartets total.
  Whereas there are 1186570 unique shell quartets.
  ==> DiskJK: Disk-Based J/K Matrices <==

    J tasked:                  Yes
    K tasked:                  Yes
    wK tasked:                  No
    Memory (MB):             17166
    Schwarz Cutoff:          1E-12

    OpenMP threads:              1
  Minimum eigenvalue in the overlap matrix is 1.0046127697E-01.
  Using Symmetric Orthogonalization.
  SCF Guess: Superposition of Atomic Densities via on-the-fly atomic UHF.

  ==> Iterations <==

                        Total Energy        Delta E     RMS |[F,P]|

   @RHF iter   0:  -160.24344520442352   -1.60243e+02   1.18145e-03 
   @RHF iter   1:  -160.23656499612346    6.88021e-03   2.62001e-04 
   @RHF iter   2:  -160.23699669545820   -4.31699e-04   8.63484e-05 DIIS
   @RHF iter   3:  -160.23705292434911   -5.62289e-05   4.41293e-06 DIIS
   @RHF iter   4:  -160.23705302935585   -1.05007e-07   2.56393e-07 DIIS
   @RHF iter   5:  -160.23705302960133   -2.45478e-10   4.20083e-08 DIIS
   @RHF iter   6:  -160.23705302960869   -7.36122e-12   4.18502e-09 DIIS

  ==> Post-Iterations <==

    Orbital Energies (a.u.)
    -----------------------

    Doubly Occupied:                                                      

       1B3u   -4.708047     1Ag    -4.708047     2B3u   -4.707932  
       2Ag    -4.707932     3B3u   -4.707892     3Ag    -4.707892  
       4Ag    -4.707878     4B3u   -4.707878     5Ag    -4.707873  
       5B3u   -4.707376     6Ag    -4.707376     7Ag    -0.317130  
       6B3u   -0.315752     8Ag    -0.313446     7B3u   -0.310309  
       9Ag    -0.306486     8B3u   -0.302170    10Ag    -0.297614  
       9B3u   -0.293124    11Ag    -0.289047    10B3u   -0.285746  
      12Ag    -0.283554  

    Virtual:                                                              

      11B3u    0.038934    13Ag     0.043703    12B3u    0.051492  
      14Ag     0.061972     1B1u    0.068490     1B2u    0.068490  
       1B2g    0.069812     1B1g    0.069812     2B1u    0.072002  
       2B2u    0.072002    13B3u    0.074738     2B2g    0.074934  
       2B1g    0.074934     3B1u    0.078435     3B2u    0.078435  
       3B2g    0.082289     3B1g    0.082289     4B1u    0.086241  
       4B2u    0.086241    15Ag     0.089322     4B2g    0.090010  
       4B1g    0.090010     5B1u    0.093320     5B2u    0.093320  
       5B2g    0.095919     5B1g    0.095919     6B1u    0.097607  
       6B2u    0.097607    14B3u    0.105129    16Ag     0.121314  
      15B3u    0.136651    17Ag     0.149526    16B3u    0.158205  
      18Ag     0.396593    17B3u    0.399279    19Ag     0.403702  
      18B3u    0.409641    20Ag     0.416784    19B3u    0.424785  
      21Ag     0.433294    20B3u    0.441948     7B1u    0.443103  
       7B2u    0.443103     6B2g    0.444919     6B1g    0.444919  
       8B1u    0.448010     8B2u    0.448010    22Ag     0.450303  
       7B2g    0.452353     7B1g    0.452353    21B3u    0.457706  
       9B1u    0.457876     9B2u    0.457876    23Ag     0.463718  
       8B2g    0.464419     8B1g    0.464419    22B3u    0.464665  
      10B1u    0.471686    10B2u    0.471686     9B2g    0.479205  
       9B1g    0.479205    11B1u    0.486321    11B2u    0.486321  
      10B2g    0.492257    10B1g    0.492257    12B1u    0.496247  
      12B2u    0.496247    24Ag     0.525259    23B3u    0.531204  
      25Ag     0.539845    24B3u    0.550574    26Ag     0.563381  
      25B3u    0.578628    27Ag     0.596678    26B3u    0.617204  
      28Ag     0.638089    27B3u    0.654664  

    Final Occupation by Irrep:
             Ag   B1g   B2g   B3g    Au   B1u   B2u   B3u 
    DOCC [    12,    0,    0,    0,    0,    0,    0,   10 ]

  Energy converged.

  @RHF Final Energy:  -160.23705302960869

   => Energetics <=

    Nuclear Repulsion Energy =             41.8048128199826223
    One-Electron Energy =                -293.8827220282142321
    Two-Electron Energy =                  91.8408561786229427
    DFT Exchange-Correlation Energy =       0.0000000000000000
    Empirical Dispersion Energy =           0.0000000000000000
    PCM Polarization Energy =               0.0000000000000000
    EFP Energy =                            0.0000000000000000
    Total Energy =                       -160.2370530296086599


  Saving occupied orbitals to File 180.

*** tstop() called on chemistry.org at Mon Jan  8 10:57:21 2018
Module time:
	user time   =       0.88 seconds =       0.01 minutes
	system time =       0.05 seconds =       0.00 minutes
	total time  =          1 seconds =       0.02 minutes
Total time:
	user time   =       0.88 seconds =       0.01 minutes
	system time =       0.05 seconds =       0.00 minutes
	total time  =          1 seconds =       0.02 minutes


Properties will be evaluated at   0.000000,   0.000000,   0.000000 Bohr

Properties computed using the SCF density matrix

  Nuclear Dipole Moment: (a.u.)
     X:    -0.0000      Y:     0.0000      Z:     0.0000

  Electronic Dipole Moment: (a.u.)
     X:     0.0000      Y:     0.0000      Z:     0.0000

  Dipole Moment: (a.u.)
     X:    -0.0000      Y:     0.0000      Z:     0.0000     Total:     0.0000

  Dipole Moment: (Debye)
     X:    -0.0000      Y:     0.0000      Z:     0.0000     Total:     0.0000

 MINTS: Wrapper to libmints.
   by Justin Turney

   Calculation information:
      Number of atoms:                  11
      Number of AO shells:              55
      Number of SO shells:              30
      Number of primitives:            154
      Number of atomic orbitals:        99
      Number of basis functions:        99

      Number of irreps:                  8
      Integral cutoff                 0.00e+00
      Number of functions per irrep: [  28   10   10    0    0   12   12   27 ]

 OEINTS: Overlap, kinetic, potential, dipole, and quadrupole integrals
         stored in file 35.

      Computing two-electron integrals...done
      Computed 1832111 non-zero two-electron integrals.
        Stored in file 33.


*** tstart() called on chemistry.org
*** at Mon Jan  8 10:57:24 2018


	Wfn Parameters:
	--------------------
	Wavefunction         = CCSD_T
	Number of irreps     = 8
	Number of MOs        = 99
	Number of active MOs = 88
	AO-Basis             = NONE
	Semicanonical        = false
	Reference            = RHF
	Print Level          = 1

	IRREP	# MOs	# FZDC	# DOCC	# SOCC	# VIRT	# FZVR
	-----	-----	------	------	------	------	------
	 Ag	   28	    6	    6	    0	    16	    0
	 B1g	   10	    0	    0	    0	    10	    0
	 B2g	   10	    0	    0	    0	    10	    0
	 B3g	   0	    0	    0	    0	    0	    0
	 Au	   0	    0	    0	    0	    0	    0
	 B1u	   12	    0	    0	    0	    12	    0
	 B2u	   12	    0	    0	    0	    12	    0
	 B3u	   27	    5	    5	    0	    17	    0
	Transforming integrals...
	IWL integrals will be deleted.
	(OO|OO)...
	Presorting SO-basis two-electron integrals.
	Sorting File: SO Ints (nn|nn) nbuckets = 1
	Transforming the one-electron integrals and constructing Fock matrices
	Starting first half-transformation.
	Sorting half-transformed integrals.
	First half integral transformation complete.
	Starting second half-transformation.
	Two-electron integral transformation complete.
	(OO|OV)...
	Starting second half-transformation.
	Two-electron integral transformation complete.
	(OO|VV)...
	Starting second half-transformation.
	Two-electron integral transformation complete.
	(OV|OO)...
	Starting first half-transformation.
	Sorting half-transformed integrals.
	First half integral transformation complete.
	Starting second half-transformation.
	Two-electron integral transformation complete.
	(OV|OV)...
	Starting second half-transformation.
	Two-electron integral transformation complete.
	(OV|VV)...
	Starting second half-transformation.
	Two-electron integral transformation complete.
	(VV|OO)...
	Starting first half-transformation.
	Sorting half-transformed integrals.
	First half integral transformation complete.
	Starting second half-transformation.
	Two-electron integral transformation complete.
	(VV|OV)...
	Starting second half-transformation.
	Two-electron integral transformation complete.
	(VV|VV)...
	Starting second half-transformation.
	Two-electron integral transformation complete.
	Frozen core energy     =   -181.06035598961739

	Size of irrep 0 of <ab|cd> integrals:      1.067 (MW) /      8.537 (MB)
	Size of irrep 1 of <ab|cd> integrals:      0.530 (MW) /      4.240 (MB)
	Size of irrep 2 of <ab|cd> integrals:      0.530 (MW) /      4.240 (MB)
	Size of irrep 3 of <ab|cd> integrals:      0.238 (MW) /      1.905 (MB)
	Size of irrep 4 of <ab|cd> integrals:      0.230 (MW) /      1.843 (MB)
	Size of irrep 5 of <ab|cd> integrals:      0.524 (MW) /      4.193 (MB)
	Size of irrep 6 of <ab|cd> integrals:      0.524 (MW) /      4.193 (MB)
	Size of irrep 7 of <ab|cd> integrals:      1.049 (MW) /      8.389 (MB)
	Total:                                     4.693 (MW) /     37.540 (MB)

	Size of irrep 0 of <ia|bc> integrals:      0.187 (MW) /      1.496 (MB)
	Size of irrep 1 of <ia|bc> integrals:      0.087 (MW) /      0.699 (MB)
	Size of irrep 2 of <ia|bc> integrals:      0.087 (MW) /      0.699 (MB)
	Size of irrep 3 of <ia|bc> integrals:      0.000 (MW) /      0.000 (MB)
	Size of irrep 4 of <ia|bc> integrals:      0.000 (MW) /      0.000 (MB)
	Size of irrep 5 of <ia|bc> integrals:      0.088 (MW) /      0.707 (MB)
	Size of irrep 6 of <ia|bc> integrals:      0.088 (MW) /      0.707 (MB)
	Size of irrep 7 of <ia|bc> integrals:      0.186 (MW) /      1.491 (MB)
	Total:                                     0.725 (MW) /      5.798 (MB)

	Size of irrep 0 of tijab amplitudes:       0.063 (MW) /      0.504 (MB)
	Size of irrep 1 of tijab amplitudes:       0.000 (MW) /      0.000 (MB)
	Size of irrep 2 of tijab amplitudes:       0.000 (MW) /      0.000 (MB)
	Size of irrep 3 of tijab amplitudes:       0.000 (MW) /      0.000 (MB)
	Size of irrep 4 of tijab amplitudes:       0.000 (MW) /      0.000 (MB)
	Size of irrep 5 of tijab amplitudes:       0.000 (MW) /      0.000 (MB)
	Size of irrep 6 of tijab amplitudes:       0.000 (MW) /      0.000 (MB)
	Size of irrep 7 of tijab amplitudes:       0.061 (MW) /      0.492 (MB)
	Total:                                     0.124 (MW) /      0.996 (MB)

	Nuclear Rep. energy          =     41.80481281998262
	SCF energy                   =   -160.23705302960869
	One-electron energy          =    -35.33426021458407
	Two-electron energy          =     14.35275035460813
	Reference energy             =   -160.23705302961071

*** tstop() called on chemistry.org at Mon Jan  8 10:57:25 2018
Module time:
	user time   =       0.52 seconds =       0.01 minutes
	system time =       0.27 seconds =       0.00 minutes
	total time  =          1 seconds =       0.02 minutes
Total time:
	user time   =       3.95 seconds =       0.07 minutes
	system time =       0.34 seconds =       0.01 minutes
	total time  =          5 seconds =       0.08 minutes

*** tstart() called on chemistry.org
*** at Mon Jan  8 10:57:25 2018

            **************************
            *                        *
            *        CCENERGY        *
            *                        *
            **************************

    Nuclear Rep. energy (wfn)     =   41.804812819982622
    SCF energy          (wfn)     = -160.237053029608688
    Reference energy    (file100) = -160.237053029610706

    Input parameters:
    -----------------
    Wave function   =     CCSD_T
    Reference wfn   =     RHF
    Brueckner       =     No
    Memory (Mbytes) =     24000.0
    Maxiter         =     50
    R_Convergence   =     1.0e-07
    E_Convergence   =     1.0e-10
    Restart         =     Yes
    DIIS            =     Yes
    AO Basis        =     NONE
    ABCD            =     NEW
    Cache Level     =     2
    Cache Type      =     LOW
    Print Level     =     1
    Num. of threads =     1
    # Amps to Print =     10
    Print MP2 Amps? =     No
    Analyze T2 Amps =     No
    Print Pair Ener =     No
    Local CC        =     No
    SCS-MP2         =     False
    SCSN-MP2        =     False
    SCS-CCSD        =     False

MP2 correlation energy -0.2605762264804097
                Solving CC Amplitude Equations
                ------------------------------
  Iter             Energy              RMS        T1Diag      D1Diag    New D1Diag    D2Diag
  ----     ---------------------    ---------   ----------  ----------  ----------   --------
     0        -0.260576226480400    0.000e+00    0.000000    0.000000    0.000000    0.167847
     1        -0.384203830542901    2.763e-01    0.004455    0.006759    0.006759    0.252148
     2        -0.505190467402130    1.445e-01    0.011973    0.018778    0.018778    0.339641
     3        -0.502755387002769    1.290e-02    0.013180    0.021027    0.021027    0.339303
     4        -0.505237991445095    3.858e-03    0.013465    0.021588    0.021588    0.341143
     5        -0.505819285374742    7.894e-04    0.013555    0.021789    0.021789    0.341548
     6        -0.505441846009317    5.060e-04    0.013531    0.021753    0.021753    0.341272
     7        -0.505388263712204    6.437e-05    0.013529    0.021751    0.021751    0.341234
     8        -0.505406466899649    3.998e-05    0.013531    0.021755    0.021755    0.341249
     9        -0.505413875630304    1.312e-05    0.013531    0.021755    0.021755    0.341255
    10        -0.505413726393018    6.200e-06    0.013531    0.021755    0.021755    0.341255
    11        -0.505413492730075    3.672e-06    0.013531    0.021754    0.021754    0.341255
    12        -0.505413506651601    1.331e-06    0.013531    0.021754    0.021754    0.341255
    13        -0.505413545890846    6.882e-07    0.013531    0.021754    0.021754    0.341255
    14        -0.505413554271037    2.552e-07    0.013531    0.021754    0.021754    0.341255
    15        -0.505413555002533    1.104e-07    0.013531    0.021754    0.021754    0.341255
    16        -0.505413551031265    5.610e-08    0.013531    0.021754    0.021754    0.341255
    17        -0.505413549983902    1.961e-08    0.013531    0.021754    0.021754    0.341255
    18        -0.505413549290608    5.251e-09    0.013531    0.021754    0.021754    0.341255
    19        -0.505413549057462    2.482e-09    0.013531    0.021754    0.021754    0.341255
    20        -0.505413549064561    1.410e-09    0.013531    0.021754    0.021754    0.341255
    21        -0.505413549106596    7.860e-10    0.013531    0.021754    0.021754    0.341255

    Iterations converged.


    Largest TIA Amplitudes:
              0   5         0.0176993399
              6  66         0.0170958834
              1   6         0.0162240288
              7  67         0.0152157690
              2   7         0.0141434929
              8  68         0.0130166212
              5  11        -0.0128439395
              3   8         0.0117933622
             10  72        -0.0116474055
              3   2         0.0113196178

    Largest TIjAb Amplitudes:
      8   8  18  18        -0.0284832913
      8   8  28  28        -0.0284832913
      8   8   2   2        -0.0272714149
      0   0  60  60        -0.0255342887
      6   6   0   0        -0.0252713263
      1   1  61  61        -0.0244812864
      5   5  41  41        -0.0244220188
      5   5  53  53        -0.0244220188
      0   5  60  65         0.0240618383
      5   0  65  60         0.0240618383

    SCF energy       (wfn)                    = -160.237053029608688
    Reference energy (file100)                = -160.237053029610706

    Opposite-spin MP2 correlation energy      =   -0.257577153850234
    Same-spin MP2 correlation energy          =   -0.002999072630165
    MP2 correlation energy                    =   -0.260576226480410
      * MP2 total energy                      = -160.497629256091102

    Opposite-spin CCSD correlation energy     =   -0.502203245972168
    Same-spin CCSD correlation energy         =   -0.003210305531428
    CCSD correlation energy                   =   -0.505413549106596
      * CCSD total energy                     = -160.742466578717313


*** tstop() called on chemistry.org at Mon Jan  8 10:57:27 2018
Module time:
	user time   =       1.16 seconds =       0.02 minutes
	system time =       0.68 seconds =       0.01 minutes
	total time  =          2 seconds =       0.03 minutes
Total time:
	user time   =       5.11 seconds =       0.09 minutes
	system time =       1.02 seconds =       0.02 minutes
	total time  =          7 seconds =       0.12 minutes

*** tstart() called on chemistry.org
*** at Mon Jan  8 10:57:27 2018

            **************************
            *                        *
            *        CCTRIPLES       *
            *                        *
            **************************


    Wave function   =    CCSD_T
    Reference wfn   =      RHF

    Nuclear Rep. energy (wfn)                =   41.804812819982622
    SCF energy          (wfn)                = -160.237053029608688
    Reference energy    (file100)            = -160.237053029610706
    CCSD energy         (file100)            =   -0.505413549106596
    Total CCSD energy   (file100)            = -160.742466578717313

    Number of ijk index combinations:              286
    Memory available in words        :      3000000000
    ~Words needed per explicit thread:           19652
    Number of threads for explicit ijk threading:    1

    (T) energy                                =   -0.000657558383472
      * CCSD(T) total energy                  = -160.743124137100779


*** tstop() called on chemistry.org at Mon Jan  8 10:57:29 2018
Module time:
	user time   =       1.06 seconds =       0.02 minutes
	system time =       0.23 seconds =       0.00 minutes
	total time  =          2 seconds =       0.03 minutes
Total time:
	user time   =       6.17 seconds =       0.10 minutes
	system time =       1.25 seconds =       0.02 minutes
	total time  =          9 seconds =       0.15 minutes

*** Psi4 exiting successfully. Buy a developer a beer!
