    -----------------------------------------------------------------------
          Psi4: An Open-Source Ab Initio Electronic Structure Package
                              Psi4 1.0.0 Driver

                          Git: Rev {master} 6a9a71b dirty

    J. M. Turney, A. C. Simmonett, R. M. Parrish, E. G. Hohenstein,
    F. A. Evangelista, J. T. Fermann, B. J. Mintz, L. A. Burns, J. J. Wilke,
    M. L. Abrams, N. J. Russ, M. L. Leininger, C. L. Janssen, E. T. Seidl,
    W. D. Allen, H. F. Schaefer, R. A. King, E. F. Valeev, C. D. Sherrill,
    and T. D. Crawford, WIREs Comput. Mol. Sci. 2, 556-565 (2012)
    (doi: 10.1002/wcms.93)

                         Additional Contributions by
    A. E. DePrince, U. Bozkaya, A. Yu. Sokolov, D. G. A. Smith, R. Di Remigio,
    R. M. Richard, J. F. Gonthier, H. R. McAlexander, M. Saitow, and
    B. P. Pritchard
    -----------------------------------------------------------------------


    Psi4 started on: Mon Jan  8 11:07:32 2018

    Process ID:  31450
    PSI4DATADIR: /home/yhliu/psi4conda/share/psi4
    Memory level set to 256.000 MB

  ==> Input File <==

--------------------------------------------------------------------------
memory 24 Gb
molecule beN {
0 1
Be   0.0    0.0 0.0
Be   4.5    0.0 0.0
Be   9.0    0.0 0.0
Be  13.5    0.0 0.0
Be  18.0    0.0 0.0
Be  22.5    0.0 0.0
Be  27.0    0.0 0.0
Be  31.5    0.0 0.0
Be  36.0    0.0 0.0
Be  40.5    0.0 0.0
Be  45.0    0.0 0.0
Be  49.5    0.0 0.0
Be  54.0    0.0 0.0
Be  58.5    0.0 0.0
Be  63.0    0.0 0.0
Be  67.5    0.0 0.0
Be  72.0    0.0 0.0
Be  76.5    0.0 0.0
Be  81.0    0.0 0.0
Be  85.5    0.0 0.0
Be  90.0    0.0 0.0
Be  94.5    0.0 0.0
units angstrom    
}

set basis 6-31g
set freeze_core true
set PRINT_BASIS True
set PUREAM False
set E_CONVERGENCE 1e-10
energy('ccsd(t)')
--------------------------------------------------------------------------
/home/yhliu/psi4conda/lib/python2.7/site-packages/v2rdm_casscf/v2rdm_casscf.so loaded.

  Memory set to  24.000 GiB by Python script.

*** tstart() called on chemistry.org
*** at Mon Jan  8 11:07:32 2018


         ---------------------------------------------------------
                                   SCF
            by Justin Turney, Rob Parrish, and Andy Simmonett
                              RHF Reference
                        1 Threads,  24000 MiB Core
         ---------------------------------------------------------

  ==> Geometry <==

    Molecular point group: d2h
    Full point group: D_inf_h

    Geometry (in Angstrom), charge = 0, multiplicity = 1:

       Center              X                  Y                   Z               Mass       
    ------------   -----------------  -----------------  -----------------  -----------------
          BE        -47.250000000000    -0.000000000000     0.000000000000     9.012182201000
          BE        -42.750000000000    -0.000000000000     0.000000000000     9.012182201000
          BE        -38.250000000000    -0.000000000000     0.000000000000     9.012182201000
          BE        -33.750000000000    -0.000000000000     0.000000000000     9.012182201000
          BE        -29.250000000000    -0.000000000000     0.000000000000     9.012182201000
          BE        -24.750000000000    -0.000000000000     0.000000000000     9.012182201000
          BE        -20.250000000000    -0.000000000000     0.000000000000     9.012182201000
          BE        -15.750000000000    -0.000000000000     0.000000000000     9.012182201000
          BE        -11.250000000000    -0.000000000000     0.000000000000     9.012182201000
          BE         -6.750000000000    -0.000000000000     0.000000000000     9.012182201000
          BE         -2.250000000000    -0.000000000000     0.000000000000     9.012182201000
          BE          2.250000000000     0.000000000000     0.000000000000     9.012182201000
          BE          6.750000000000     0.000000000000     0.000000000000     9.012182201000
          BE         11.250000000000     0.000000000000     0.000000000000     9.012182201000
          BE         15.750000000000     0.000000000000     0.000000000000     9.012182201000
          BE         20.250000000000     0.000000000000     0.000000000000     9.012182201000
          BE         24.750000000000     0.000000000000     0.000000000000     9.012182201000
          BE         29.250000000000     0.000000000000     0.000000000000     9.012182201000
          BE         33.750000000000     0.000000000000     0.000000000000     9.012182201000
          BE         38.250000000000     0.000000000000     0.000000000000     9.012182201000
          BE         42.750000000000     0.000000000000     0.000000000000     9.012182201000
          BE         47.250000000000     0.000000000000     0.000000000000     9.012182201000

  Running in d2h symmetry.

  Rotational constants: A = ************  B =      0.00010  C =      0.00010 [cm^-1]
  Rotational constants: A = ************  B =      3.12733  C =      3.12733 [MHz]
  Nuclear repulsion =  111.381955487691314

  Charge       = 0
  Multiplicity = 1
  Electrons    = 88
  Nalpha       = 44
  Nbeta        = 44

  ==> Algorithm <==

  SCF Algorithm Type is PK.
  DIIS enabled.
  MOM disabled.
  Fractional occupation disabled.
  Guess Type is SAD.
  Energy threshold   = 1.00e-10
  Density threshold  = 1.00e-08
  Integral threshold = 0.00e+00

  ==> Primary Basis <==

  Basis Set: 6-31G
    Number of shells: 110
    Number of basis function: 198
    Number of Cartesian functions: 198
    Spherical Harmonics?: false
    Max angular momentum: 1

  -AO BASIS SET INFORMATION:
    Name                   = 6-31G
    Total number of shells = 110
    Number of primitives   = 308
    Number of AO           = 198
    Number of SO           = 198
    Maximum AM             = 1
    Spherical Harmonics    = FALSE

  -Contraction Scheme:
    Atom   Type   All Primitives // Shells:
   ------ ------ --------------------------
       1    BE     10s 4p // 3s 2p 
       2    BE     10s 4p // 3s 2p 
       3    BE     10s 4p // 3s 2p 
       4    BE     10s 4p // 3s 2p 
       5    BE     10s 4p // 3s 2p 
       6    BE     10s 4p // 3s 2p 
       7    BE     10s 4p // 3s 2p 
       8    BE     10s 4p // 3s 2p 
       9    BE     10s 4p // 3s 2p 
      10    BE     10s 4p // 3s 2p 
      11    BE     10s 4p // 3s 2p 
      12    BE     10s 4p // 3s 2p 
      13    BE     10s 4p // 3s 2p 
      14    BE     10s 4p // 3s 2p 
      15    BE     10s 4p // 3s 2p 
      16    BE     10s 4p // 3s 2p 
      17    BE     10s 4p // 3s 2p 
      18    BE     10s 4p // 3s 2p 
      19    BE     10s 4p // 3s 2p 
      20    BE     10s 4p // 3s 2p 
      21    BE     10s 4p // 3s 2p 
      22    BE     10s 4p // 3s 2p 

  ==> AO Basis Functions <==

    [ 6-31G ]
    cartesian
    ****
   BE   1
    S   6 1.00
                      1264.58570000           0.00194480
                       189.93681000           0.01483510
                        43.15908900           0.07209060
                        12.09866300           0.23715420
                         3.80632320           0.46919870
                         1.27289030           0.35652020
    S   3 1.00
                         3.19646310          -0.11264870
                         0.74781330          -0.22950640
                         0.21996630           1.18691670
    P   3 1.00
                         3.19646310           0.05598020
                         0.74781330           0.26155060
                         0.21996630           0.79397230
    S   1 1.00
                         0.08230990           1.00000000
    P   1 1.00
                         0.08230990           1.00000000
    ****
   BE   2
    S   6 1.00
                      1264.58570000           0.00194480
                       189.93681000           0.01483510
                        43.15908900           0.07209060
                        12.09866300           0.23715420
                         3.80632320           0.46919870
                         1.27289030           0.35652020
    S   3 1.00
                         3.19646310          -0.11264870
                         0.74781330          -0.22950640
                         0.21996630           1.18691670
    P   3 1.00
                         3.19646310           0.05598020
                         0.74781330           0.26155060
                         0.21996630           0.79397230
    S   1 1.00
                         0.08230990           1.00000000
    P   1 1.00
                         0.08230990           1.00000000
    ****
   BE   3
    S   6 1.00
                      1264.58570000           0.00194480
                       189.93681000           0.01483510
                        43.15908900           0.07209060
                        12.09866300           0.23715420
                         3.80632320           0.46919870
                         1.27289030           0.35652020
    S   3 1.00
                         3.19646310          -0.11264870
                         0.74781330          -0.22950640
                         0.21996630           1.18691670
    P   3 1.00
                         3.19646310           0.05598020
                         0.74781330           0.26155060
                         0.21996630           0.79397230
    S   1 1.00
                         0.08230990           1.00000000
    P   1 1.00
                         0.08230990           1.00000000
    ****
   BE   4
    S   6 1.00
                      1264.58570000           0.00194480
                       189.93681000           0.01483510
                        43.15908900           0.07209060
                        12.09866300           0.23715420
                         3.80632320           0.46919870
                         1.27289030           0.35652020
    S   3 1.00
                         3.19646310          -0.11264870
                         0.74781330          -0.22950640
                         0.21996630           1.18691670
    P   3 1.00
                         3.19646310           0.05598020
                         0.74781330           0.26155060
                         0.21996630           0.79397230
    S   1 1.00
                         0.08230990           1.00000000
    P   1 1.00
                         0.08230990           1.00000000
    ****
   BE   5
    S   6 1.00
                      1264.58570000           0.00194480
                       189.93681000           0.01483510
                        43.15908900           0.07209060
                        12.09866300           0.23715420
                         3.80632320           0.46919870
                         1.27289030           0.35652020
    S   3 1.00
                         3.19646310          -0.11264870
                         0.74781330          -0.22950640
                         0.21996630           1.18691670
    P   3 1.00
                         3.19646310           0.05598020
                         0.74781330           0.26155060
                         0.21996630           0.79397230
    S   1 1.00
                         0.08230990           1.00000000
    P   1 1.00
                         0.08230990           1.00000000
    ****
   BE   6
    S   6 1.00
                      1264.58570000           0.00194480
                       189.93681000           0.01483510
                        43.15908900           0.07209060
                        12.09866300           0.23715420
                         3.80632320           0.46919870
                         1.27289030           0.35652020
    S   3 1.00
                         3.19646310          -0.11264870
                         0.74781330          -0.22950640
                         0.21996630           1.18691670
    P   3 1.00
                         3.19646310           0.05598020
                         0.74781330           0.26155060
                         0.21996630           0.79397230
    S   1 1.00
                         0.08230990           1.00000000
    P   1 1.00
                         0.08230990           1.00000000
    ****
   BE   7
    S   6 1.00
                      1264.58570000           0.00194480
                       189.93681000           0.01483510
                        43.15908900           0.07209060
                        12.09866300           0.23715420
                         3.80632320           0.46919870
                         1.27289030           0.35652020
    S   3 1.00
                         3.19646310          -0.11264870
                         0.74781330          -0.22950640
                         0.21996630           1.18691670
    P   3 1.00
                         3.19646310           0.05598020
                         0.74781330           0.26155060
                         0.21996630           0.79397230
    S   1 1.00
                         0.08230990           1.00000000
    P   1 1.00
                         0.08230990           1.00000000
    ****
   BE   8
    S   6 1.00
                      1264.58570000           0.00194480
                       189.93681000           0.01483510
                        43.15908900           0.07209060
                        12.09866300           0.23715420
                         3.80632320           0.46919870
                         1.27289030           0.35652020
    S   3 1.00
                         3.19646310          -0.11264870
                         0.74781330          -0.22950640
                         0.21996630           1.18691670
    P   3 1.00
                         3.19646310           0.05598020
                         0.74781330           0.26155060
                         0.21996630           0.79397230
    S   1 1.00
                         0.08230990           1.00000000
    P   1 1.00
                         0.08230990           1.00000000
    ****
   BE   9
    S   6 1.00
                      1264.58570000           0.00194480
                       189.93681000           0.01483510
                        43.15908900           0.07209060
                        12.09866300           0.23715420
                         3.80632320           0.46919870
                         1.27289030           0.35652020
    S   3 1.00
                         3.19646310          -0.11264870
                         0.74781330          -0.22950640
                         0.21996630           1.18691670
    P   3 1.00
                         3.19646310           0.05598020
                         0.74781330           0.26155060
                         0.21996630           0.79397230
    S   1 1.00
                         0.08230990           1.00000000
    P   1 1.00
                         0.08230990           1.00000000
    ****
   BE  10
    S   6 1.00
                      1264.58570000           0.00194480
                       189.93681000           0.01483510
                        43.15908900           0.07209060
                        12.09866300           0.23715420
                         3.80632320           0.46919870
                         1.27289030           0.35652020
    S   3 1.00
                         3.19646310          -0.11264870
                         0.74781330          -0.22950640
                         0.21996630           1.18691670
    P   3 1.00
                         3.19646310           0.05598020
                         0.74781330           0.26155060
                         0.21996630           0.79397230
    S   1 1.00
                         0.08230990           1.00000000
    P   1 1.00
                         0.08230990           1.00000000
    ****
   BE  11
    S   6 1.00
                      1264.58570000           0.00194480
                       189.93681000           0.01483510
                        43.15908900           0.07209060
                        12.09866300           0.23715420
                         3.80632320           0.46919870
                         1.27289030           0.35652020
    S   3 1.00
                         3.19646310          -0.11264870
                         0.74781330          -0.22950640
                         0.21996630           1.18691670
    P   3 1.00
                         3.19646310           0.05598020
                         0.74781330           0.26155060
                         0.21996630           0.79397230
    S   1 1.00
                         0.08230990           1.00000000
    P   1 1.00
                         0.08230990           1.00000000
    ****

  ==> Pre-Iterations <==

   -------------------------------------------------------
    Irrep   Nso     Nmo     Nalpha   Nbeta   Ndocc  Nsocc
   -------------------------------------------------------
     Ag        55      55       0       0       0       0
     B1g       22      22       0       0       0       0
     B2g       22      22       0       0       0       0
     B3g        0       0       0       0       0       0
     Au         0       0       0       0       0       0
     B1u       22      22       0       0       0       0
     B2u       22      22       0       0       0       0
     B3u       55      55       0       0       0       0
   -------------------------------------------------------
    Total     198     198      44      44      44       0
   -------------------------------------------------------

  ==> Integral Setup <==

  Using in-core PK algorithm.
   Calculation information:
      Number of atoms:                  22
      Number of AO shells:             110
      Number of primitives:            308
      Number of atomic orbitals:       198
      Number of basis functions:       198

      Integral cutoff                 1.00e-12
      Number of threads:                 1

  Performing in-core PK
  Using 388149102 doubles for integral storage.
  We computed 606470 shell quartets total.
  Whereas there are 18638565 unique shell quartets.
  ==> DiskJK: Disk-Based J/K Matrices <==

    J tasked:                  Yes
    K tasked:                  Yes
    wK tasked:                  No
    Memory (MB):             17166
    Schwarz Cutoff:          1E-12

    OpenMP threads:              1
  Minimum eigenvalue in the overlap matrix is 1.0041809398E-01.
  Using Symmetric Orthogonalization.
  SCF Guess: Superposition of Atomic Densities via on-the-fly atomic UHF.

  ==> Iterations <==

                        Total Energy        Delta E     RMS |[F,P]|

   @RHF iter   0:  -320.48779449576710   -3.20488e+02   8.56176e-04 
   @RHF iter   1:  -320.47332768021403    1.44668e-02   1.90127e-04 
   @RHF iter   2:  -320.47423661774786   -9.08938e-04   6.27998e-05 DIIS
   @RHF iter   3:  -320.47435549886876   -1.18881e-04   3.12104e-06 DIIS
   @RHF iter   4:  -320.47435571014188   -2.11273e-07   1.37373e-07 DIIS
   @RHF iter   5:  -320.47435571042541   -2.83535e-10   2.62213e-08 DIIS
   @RHF iter   6:  -320.47435571043712   -1.17097e-11   3.21150e-09 DIIS

  ==> Post-Iterations <==

    Orbital Energies (a.u.)
    -----------------------

    Doubly Occupied:                                                      

       1B3u   -4.708045     1Ag    -4.708045     2B3u   -4.707928  
       2Ag    -4.707928     3Ag    -4.707887     3B3u   -4.707887  
       4Ag    -4.707871     4B3u   -4.707871     5B3u   -4.707863  
       5Ag    -4.707863     6B3u   -4.707860     6Ag    -4.707860  
       7B3u   -4.707858     7Ag    -4.707858     8B3u   -4.707857  
       8Ag    -4.707856     9B3u   -4.707856     9Ag    -4.707855  
      10B3u   -4.707854    10Ag    -4.707852    11B3u   -4.707374  
      11Ag    -4.707374    12Ag    -0.317440    12B3u   -0.317071  
      13Ag    -0.316446    13B3u   -0.315567    14Ag    -0.314442  
      14B3u   -0.313083    15Ag    -0.311503    15B3u   -0.309720  
      16Ag    -0.307757    16B3u   -0.305638    17Ag    -0.303394  
      17B3u   -0.301059    18Ag    -0.298674    18B3u   -0.296281  
      19Ag    -0.293929    19B3u   -0.291669    20Ag    -0.289554  
      20B3u   -0.287639    21Ag    -0.285978    21B3u   -0.284618  
      22Ag    -0.283604    22B3u   -0.282972  

    Virtual:                                                              

      23Ag     0.037805    23B3u    0.039149    24Ag     0.041384  
      24B3u    0.044483    25Ag     0.048404    25B3u    0.053098  
      26Ag     0.058507    26B3u    0.064572     1B1u    0.068194  
       1B2u    0.068194     1B1g    0.068552     1B2g    0.068552  
       2B1u    0.069158     2B2u    0.069158     2B1g    0.070006  
       2B2g    0.070006     3B1u    0.071084     3B2u    0.071084  
      27Ag     0.071229     3B1g    0.072376     3B2g    0.072376  
       4B1u    0.073864     4B2u    0.073864     4B1g    0.075525  
       4B2g    0.075525     5B1u    0.077333     5B2u    0.077333  
      27B3u    0.078408     5B1g    0.079258     5B2g    0.079258  
       6B1u    0.081267     6B2u    0.081267     6B1g    0.083325  
       6B2g    0.083325     7B1u    0.085392     7B2u    0.085392  
      28Ag     0.086035     7B1g    0.087429     7B2g    0.087429  
       8B1u    0.089395     8B2u    0.089395     8B1g    0.091249  
       8B2g    0.091249     9B1u    0.092952     9B2u    0.092952  
      28B3u    0.094026     9B1g    0.094467     9B2g    0.094467  
      10B1u    0.095761    10B2u    0.095761    10B1g    0.096806  
      10B2g    0.096806    11B1u    0.097577    11B2u    0.097577  
      11B1g    0.098056    11B2g    0.098056    29Ag     0.102281  
      29B3u    0.110681    30Ag     0.119081    30B3u    0.127308  
      31Ag     0.135155    31B3u    0.142392    32Ag     0.148772  
      32B3u    0.154051    33Ag     0.158010    33B3u    0.160469  
      34Ag     0.395946    34B3u    0.396619    35Ag     0.397755  
      35B3u    0.399353    36Ag     0.401408    36B3u    0.403901  
      37Ag     0.406805    37B3u    0.410086    38Ag     0.413700  
      38B3u    0.417599    39Ag     0.421734    39B3u    0.426052  
      40Ag     0.430499    40B3u    0.435018    41Ag     0.439547  
      12B1u    0.442693    12B2u    0.442693    12B1g    0.443177  
      12B2g    0.443177    13B1u    0.444000    13B2u    0.444000  
      41B3u    0.444019    13B1g    0.445165    13B2g    0.445165  
      14B1u    0.446673    14B2u    0.446673    42Ag     0.448352  
      14B1g    0.448521    14B2g    0.448521    15B1u    0.450708  
      15B2u    0.450708    42B3u    0.452444    15B1g    0.453225  
      15B2g    0.453225    16B1u    0.456060    16B2u    0.456060  
      43Ag     0.456170    16B1g    0.459194    16B2g    0.459194  
      43B3u    0.459365    44Ag     0.461812    17B1u    0.462597  
      17B2u    0.462597    44B3u    0.464280    45Ag     0.464362  
      17B1g    0.466229    17B2g    0.466229    18B1u    0.470037  
      18B2u    0.470037    18B1g    0.473952    18B2g    0.473952  
      19B1u    0.477892    19B2u    0.477892    19B1g    0.481760  
      19B2g    0.481760    20B1u    0.485450    20B2u    0.485450  
      20B1g    0.488846    20B2g    0.488846    21B1u    0.491832  
      21B2u    0.491832    21B1g    0.494297    21B2g    0.494297  
      22B1u    0.496143    22B2u    0.496143    22B1g    0.497292  
      22B2g    0.497292    45B3u    0.523665    46Ag     0.525325  
      46B3u    0.527947    47Ag     0.531366    47B3u    0.535438  
      48Ag     0.540063    48B3u    0.545184    49Ag     0.550787  
      49B3u    0.556888    50Ag     0.563528    50B3u    0.570765  
      51Ag     0.578660    51B3u    0.587262    52Ag     0.596580  
      52B3u    0.606557    53Ag     0.617021    53B3u    0.627648  
      54Ag     0.637929    54B3u    0.647181    55Ag     0.654612  
      55B3u    0.659457  

    Final Occupation by Irrep:
             Ag   B1g   B2g   B3g    Au   B1u   B2u   B3u 
    DOCC [    22,    0,    0,    0,    0,    0,    0,   22 ]

  Energy converged.

  @RHF Final Energy:  -320.47435571043712

   => Energetics <=

    Nuclear Repulsion Energy =            111.3819554876913145
    One-Electron Energy =                -643.3115461061383940
    Two-Electron Energy =                 211.4552349080099134
    DFT Exchange-Correlation Energy =       0.0000000000000000
    Empirical Dispersion Energy =           0.0000000000000000
    PCM Polarization Energy =               0.0000000000000000
    EFP Energy =                            0.0000000000000000
    Total Energy =                       -320.4743557104371234


  Saving occupied orbitals to File 180.

*** tstop() called on chemistry.org at Mon Jan  8 11:07:38 2018
Module time:
	user time   =       5.62 seconds =       0.09 minutes
	system time =       0.70 seconds =       0.01 minutes
	total time  =          6 seconds =       0.10 minutes
Total time:
	user time   =       5.62 seconds =       0.09 minutes
	system time =       0.70 seconds =       0.01 minutes
	total time  =          6 seconds =       0.10 minutes


Properties will be evaluated at   0.000000,   0.000000,   0.000000 Bohr

Properties computed using the SCF density matrix

  Nuclear Dipole Moment: (a.u.)
     X:     0.0000      Y:     0.0000      Z:     0.0000

  Electronic Dipole Moment: (a.u.)
     X:     0.0000      Y:     0.0000      Z:     0.0000

  Dipole Moment: (a.u.)
     X:     0.0000      Y:     0.0000      Z:     0.0000     Total:     0.0000

  Dipole Moment: (Debye)
     X:     0.0000      Y:     0.0000      Z:     0.0000     Total:     0.0000

 MINTS: Wrapper to libmints.
   by Justin Turney

   Calculation information:
      Number of atoms:                  22
      Number of AO shells:             110
      Number of SO shells:              55
      Number of primitives:            308
      Number of atomic orbitals:       198
      Number of basis functions:       198

      Number of irreps:                  8
      Integral cutoff                 0.00e+00
      Number of functions per irrep: [  55   22   22    0    0   22   22   55 ]

 OEINTS: Overlap, kinetic, potential, dipole, and quadrupole integrals
         stored in file 35.

      Computing two-electron integrals...done
      Computed 27079967 non-zero two-electron integrals.
        Stored in file 33.


*** tstart() called on chemistry.org
*** at Mon Jan  8 11:08:16 2018


	Wfn Parameters:
	--------------------
	Wavefunction         = CCSD_T
	Number of irreps     = 8
	Number of MOs        = 198
	Number of active MOs = 176
	AO-Basis             = NONE
	Semicanonical        = false
	Reference            = RHF
	Print Level          = 1

	IRREP	# MOs	# FZDC	# DOCC	# SOCC	# VIRT	# FZVR
	-----	-----	------	------	------	------	------
	 Ag	   55	    11	    11	    0	    33	    0
	 B1g	   22	    0	    0	    0	    22	    0
	 B2g	   22	    0	    0	    0	    22	    0
	 B3g	   0	    0	    0	    0	    0	    0
	 Au	   0	    0	    0	    0	    0	    0
	 B1u	   22	    0	    0	    0	    22	    0
	 B2u	   22	    0	    0	    0	    22	    0
	 B3u	   55	    11	    11	    0	    33	    0
	Transforming integrals...
	IWL integrals will be deleted.
	(OO|OO)...
	Presorting SO-basis two-electron integrals.
	Sorting File: SO Ints (nn|nn) nbuckets = 1
	Transforming the one-electron integrals and constructing Fock matrices
	Starting first half-transformation.
	Sorting half-transformed integrals.
	First half integral transformation complete.
	Starting second half-transformation.
	Two-electron integral transformation complete.
	(OO|OV)...
	Starting second half-transformation.
	Two-electron integral transformation complete.
	(OO|VV)...
	Starting second half-transformation.
	Two-electron integral transformation complete.
	(OV|OO)...
	Starting first half-transformation.
	Sorting half-transformed integrals.
	First half integral transformation complete.
	Starting second half-transformation.
	Two-electron integral transformation complete.
	(OV|OV)...
	Starting second half-transformation.
	Two-electron integral transformation complete.
	(OV|VV)...
	Starting second half-transformation.
	Two-electron integral transformation complete.
	(VV|OO)...
	Starting first half-transformation.
	Sorting half-transformed integrals.
	First half integral transformation complete.
	Starting second half-transformation.
	Two-electron integral transformation complete.
	(VV|OV)...
	Starting second half-transformation.
	Two-electron integral transformation complete.
	(VV|VV)...
	Starting second half-transformation.
	Two-electron integral transformation complete.
	Frozen core energy     =   -382.94995760855369

	Size of irrep 0 of <ab|cd> integrals:     16.925 (MW) /    135.400 (MB)
	Size of irrep 1 of <ab|cd> integrals:      8.433 (MW) /     67.466 (MB)
	Size of irrep 2 of <ab|cd> integrals:      8.433 (MW) /     67.466 (MB)
	Size of irrep 3 of <ab|cd> integrals:      3.748 (MW) /     29.985 (MB)
	Size of irrep 4 of <ab|cd> integrals:      3.748 (MW) /     29.985 (MB)
	Size of irrep 5 of <ab|cd> integrals:      8.433 (MW) /     67.466 (MB)
	Size of irrep 6 of <ab|cd> integrals:      8.433 (MW) /     67.466 (MB)
	Size of irrep 7 of <ab|cd> integrals:     16.925 (MW) /    135.400 (MB)
	Total:                                    75.079 (MW) /    600.632 (MB)

	Size of irrep 0 of <ia|bc> integrals:      2.987 (MW) /     23.894 (MB)
	Size of irrep 1 of <ia|bc> integrals:      1.406 (MW) /     11.244 (MB)
	Size of irrep 2 of <ia|bc> integrals:      1.406 (MW) /     11.244 (MB)
	Size of irrep 3 of <ia|bc> integrals:      0.000 (MW) /      0.000 (MB)
	Size of irrep 4 of <ia|bc> integrals:      0.000 (MW) /      0.000 (MB)
	Size of irrep 5 of <ia|bc> integrals:      1.406 (MW) /     11.244 (MB)
	Size of irrep 6 of <ia|bc> integrals:      1.406 (MW) /     11.244 (MB)
	Size of irrep 7 of <ia|bc> integrals:      2.987 (MW) /     23.894 (MB)
	Total:                                    11.596 (MW) /     92.765 (MB)

	Size of irrep 0 of tijab amplitudes:       0.996 (MW) /      7.965 (MB)
	Size of irrep 1 of tijab amplitudes:       0.000 (MW) /      0.000 (MB)
	Size of irrep 2 of tijab amplitudes:       0.000 (MW) /      0.000 (MB)
	Size of irrep 3 of tijab amplitudes:       0.000 (MW) /      0.000 (MB)
	Size of irrep 4 of tijab amplitudes:       0.000 (MW) /      0.000 (MB)
	Size of irrep 5 of tijab amplitudes:       0.000 (MW) /      0.000 (MB)
	Size of irrep 6 of tijab amplitudes:       0.000 (MW) /      0.000 (MB)
	Size of irrep 7 of tijab amplitudes:       0.996 (MW) /      7.965 (MB)
	Total:                                     1.991 (MW) /     15.929 (MB)

	Nuclear Rep. energy          =    111.38195548769130
	SCF energy                   =   -320.47435571043712
	One-electron energy          =    -84.55663549356630
	Two-electron energy          =     35.65028190398537
	Reference energy             =   -320.47435571044332

*** tstop() called on chemistry.org at Mon Jan  8 11:08:30 2018
Module time:
	user time   =       9.22 seconds =       0.15 minutes
	system time =       4.87 seconds =       0.08 minutes
	total time  =         14 seconds =       0.23 minutes
Total time:
	user time   =      51.40 seconds =       0.86 minutes
	system time =       5.90 seconds =       0.10 minutes
	total time  =         58 seconds =       0.97 minutes

*** tstart() called on chemistry.org
*** at Mon Jan  8 11:08:30 2018

            **************************
            *                        *
            *        CCENERGY        *
            *                        *
            **************************

    Nuclear Rep. energy (wfn)     =  111.381955487691300
    SCF energy          (wfn)     = -320.474355710437123
    Reference energy    (file100) = -320.474355710443319

    Input parameters:
    -----------------
    Wave function   =     CCSD_T
    Reference wfn   =     RHF
    Brueckner       =     No
    Memory (Mbytes) =     24000.0
    Maxiter         =     50
    R_Convergence   =     1.0e-07
    E_Convergence   =     1.0e-10
    Restart         =     Yes
    DIIS            =     Yes
    AO Basis        =     NONE
    ABCD            =     NEW
    Cache Level     =     2
    Cache Type      =     LOW
    Print Level     =     1
    Num. of threads =     1
    # Amps to Print =     10
    Print MP2 Amps? =     No
    Analyze T2 Amps =     No
    Print Pair Ener =     No
    Local CC        =     No
    SCS-MP2         =     False
    SCSN-MP2        =     False
    SCS-CCSD        =     False

MP2 correlation energy -0.5216605972049860
                Solving CC Amplitude Equations
                ------------------------------
  Iter             Energy              RMS        T1Diag      D1Diag    New D1Diag    D2Diag
  ----     ---------------------    ---------   ----------  ----------  ----------   --------
     0        -0.521660597204954    0.000e+00    0.000000    0.000000    0.000000    0.168044
     1        -0.768832086325183    3.905e-01    0.004448    0.006786    0.006786    0.252427
     2        -1.010200801491659    2.040e-01    0.011986    0.018907    0.018907    0.339883
     3        -1.005482011701724    1.851e-02    0.013236    0.021229    0.021229    0.339610
     4        -1.010466842289182    5.523e-03    0.013530    0.021807    0.021807    0.341455
     5        -1.011637691379655    1.140e-03    0.013624    0.022014    0.022014    0.341856
     6        -1.010886999404661    7.183e-04    0.013600    0.021977    0.021977    0.341578
     7        -1.010775897232639    9.333e-05    0.013598    0.021975    0.021975    0.341537
     8        -1.010809291895375    5.422e-05    0.013600    0.021978    0.021978    0.341550
     9        -1.010823995777370    1.863e-05    0.013600    0.021978    0.021978    0.341556
    10        -1.010823696086490    8.907e-06    0.013600    0.021978    0.021978    0.341556
    11        -1.010823216398965    5.217e-06    0.013600    0.021978    0.021978    0.341556
    12        -1.010823236802594    1.902e-06    0.013600    0.021978    0.021978    0.341556
    13        -1.010823315930776    9.894e-07    0.013600    0.021978    0.021978    0.341556
    14        -1.010823333482427    3.686e-07    0.013600    0.021978    0.021978    0.341556
    15        -1.010823335306087    1.574e-07    0.013600    0.021978    0.021978    0.341556
    16        -1.010823326944029    7.935e-08    0.013600    0.021978    0.021978    0.341556
    17        -1.010823324980221    2.788e-08    0.013600    0.021978    0.021978    0.341556
    18        -1.010823323519924    7.520e-09    0.013600    0.021978    0.021978    0.341556
    19        -1.010823323006030    3.565e-09    0.013600    0.021978    0.021978    0.341556
    20        -1.010823322998583    2.055e-09    0.013600    0.021978    0.021978    0.341556
    21        -1.010823323082722    1.148e-09    0.013600    0.021978    0.021978    0.341556

    Iterations converged.


    Largest TIA Amplitudes:
              0  11        -0.0178591675
             11 132         0.0176611166
              1  12         0.0173472239
             12 133         0.0169412727
              2  13         0.0164659842
             13 134         0.0159421773
              3  14         0.0153869879
             14 135         0.0148127813
              4  15         0.0142268713
             15 136         0.0136317956

    Largest TIjAb Amplitudes:
     11  11 121 121        -0.0134220561
      0   0   0   0        -0.0133632010
      1   1   1   1        -0.0133375112
     12  12 122 122        -0.0131734226
      2   2   2   2        -0.0129532299
     21  21  43  43        -0.0129173194
     21  21  65  65        -0.0129173194
     10  10  87  87        -0.0127077666
     10  10 109 109        -0.0127077666
     13  13 123 123        -0.0126906127

    SCF energy       (wfn)                    = -320.474355710437123
    Reference energy (file100)                = -320.474355710443319

    Opposite-spin MP2 correlation energy      =   -0.515342425491842
    Same-spin MP2 correlation energy          =   -0.006318171713112
    MP2 correlation energy                    =   -0.521660597204986
      * MP2 total energy                      = -320.996016307648290

    Opposite-spin CCSD correlation energy     =   -1.004058165821400
    Same-spin CCSD correlation energy         =   -0.006765162065491
    CCSD correlation energy                   =   -1.010823323082722
      * CCSD total energy                     = -321.485179033526038


*** tstop() called on chemistry.org at Mon Jan  8 11:09:34 2018
Module time:
	user time   =      31.13 seconds =       0.52 minutes
	system time =      14.02 seconds =       0.23 minutes
	total time  =         64 seconds =       1.07 minutes
Total time:
	user time   =      82.53 seconds =       1.38 minutes
	system time =      19.93 seconds =       0.33 minutes
	total time  =        122 seconds =       2.03 minutes

*** tstart() called on chemistry.org
*** at Mon Jan  8 11:09:34 2018

            **************************
            *                        *
            *        CCTRIPLES       *
            *                        *
            **************************


    Wave function   =    CCSD_T
    Reference wfn   =      RHF

    Nuclear Rep. energy (wfn)                =  111.381955487691300
    SCF energy          (wfn)                = -320.474355710437123
    Reference energy    (file100)            = -320.474355710443319
    CCSD energy         (file100)            =   -1.010823323082722
    Total CCSD energy   (file100)            = -321.485179033526038

    Number of ijk index combinations:             2024
    Memory available in words        :      3000000000
    ~Words needed per explicit thread:          143748
    Number of threads for explicit ijk threading:    1

    (T) energy                                =   -0.001387132272908
      * CCSD(T) total energy                  = -321.486566165798934


*** tstop() called on chemistry.org at Mon Jan  8 11:11:05 2018
Module time:
	user time   =      72.52 seconds =       1.21 minutes
	system time =      18.59 seconds =       0.31 minutes
	total time  =         91 seconds =       1.52 minutes
Total time:
	user time   =     155.05 seconds =       2.58 minutes
	system time =      38.52 seconds =       0.64 minutes
	total time  =        213 seconds =       3.55 minutes

*** Psi4 exiting successfully. Buy a developer a beer!
