    -----------------------------------------------------------------------
          Psi4: An Open-Source Ab Initio Electronic Structure Package
                              Psi4 1.0.0 Driver

                          Git: Rev {master} 6a9a71b dirty

    J. M. Turney, A. C. Simmonett, R. M. Parrish, E. G. Hohenstein,
    F. A. Evangelista, J. T. Fermann, B. J. Mintz, L. A. Burns, J. J. Wilke,
    M. L. Abrams, N. J. Russ, M. L. Leininger, C. L. Janssen, E. T. Seidl,
    W. D. Allen, H. F. Schaefer, R. A. King, E. F. Valeev, C. D. Sherrill,
    and T. D. Crawford, WIREs Comput. Mol. Sci. 2, 556-565 (2012)
    (doi: 10.1002/wcms.93)

                         Additional Contributions by
    A. E. DePrince, U. Bozkaya, A. Yu. Sokolov, D. G. A. Smith, R. Di Remigio,
    R. M. Richard, J. F. Gonthier, H. R. McAlexander, M. Saitow, and
    B. P. Pritchard
    -----------------------------------------------------------------------


    Psi4 started on: Mon Jan  8 11:15:43 2018

    Process ID:  32144
    PSI4DATADIR: /home/yhliu/psi4conda/share/psi4
    Memory level set to 256.000 MB

  ==> Input File <==

--------------------------------------------------------------------------
memory 24 Gb
molecule beN {
0 1
Be   0.0    0.0 0.0
Be   4.5    0.0 0.0
Be   9.0    0.0 0.0
Be  13.5    0.0 0.0
Be  18.0    0.0 0.0
Be  22.5    0.0 0.0
Be  27.0    0.0 0.0
Be  31.5    0.0 0.0
Be  36.0    0.0 0.0
Be  40.5    0.0 0.0
Be  45.0    0.0 0.0
Be  49.5    0.0 0.0
Be  54.0    0.0 0.0
Be  58.5    0.0 0.0
Be  63.0    0.0 0.0
Be  67.5    0.0 0.0
Be  72.0    0.0 0.0
Be  76.5    0.0 0.0
Be  81.0    0.0 0.0
Be  85.5    0.0 0.0
Be  90.0    0.0 0.0
Be  94.5    0.0 0.0
Be  99.0    0.0 0.0
Be 103.5    0.0 0.0
units angstrom    
}

set basis 6-31g
set freeze_core true
set PRINT_BASIS True
set PUREAM False
set E_CONVERGENCE 1e-10
energy('ccsd(t)')
--------------------------------------------------------------------------
/home/yhliu/psi4conda/lib/python2.7/site-packages/v2rdm_casscf/v2rdm_casscf.so loaded.

  Memory set to  24.000 GiB by Python script.

*** tstart() called on chemistry.org
*** at Mon Jan  8 11:15:43 2018


         ---------------------------------------------------------
                                   SCF
            by Justin Turney, Rob Parrish, and Andy Simmonett
                              RHF Reference
                        1 Threads,  24000 MiB Core
         ---------------------------------------------------------

  ==> Geometry <==

    Molecular point group: d2h
    Full point group: D_inf_h

    Geometry (in Angstrom), charge = 0, multiplicity = 1:

       Center              X                  Y                   Z               Mass       
    ------------   -----------------  -----------------  -----------------  -----------------
          BE        -51.750000000000    -0.000000000000     0.000000000000     9.012182201000
          BE        -47.250000000000    -0.000000000000     0.000000000000     9.012182201000
          BE        -42.750000000000    -0.000000000000     0.000000000000     9.012182201000
          BE        -38.250000000000    -0.000000000000     0.000000000000     9.012182201000
          BE        -33.750000000000    -0.000000000000     0.000000000000     9.012182201000
          BE        -29.250000000000    -0.000000000000     0.000000000000     9.012182201000
          BE        -24.750000000000    -0.000000000000     0.000000000000     9.012182201000
          BE        -20.250000000000    -0.000000000000     0.000000000000     9.012182201000
          BE        -15.750000000000    -0.000000000000     0.000000000000     9.012182201000
          BE        -11.250000000000    -0.000000000000     0.000000000000     9.012182201000
          BE         -6.750000000000    -0.000000000000     0.000000000000     9.012182201000
          BE         -2.250000000000    -0.000000000000     0.000000000000     9.012182201000
          BE          2.250000000000     0.000000000000     0.000000000000     9.012182201000
          BE          6.750000000000     0.000000000000     0.000000000000     9.012182201000
          BE         11.250000000000     0.000000000000     0.000000000000     9.012182201000
          BE         15.750000000000     0.000000000000     0.000000000000     9.012182201000
          BE         20.250000000000     0.000000000000     0.000000000000     9.012182201000
          BE         24.750000000000     0.000000000000     0.000000000000     9.012182201000
          BE         29.250000000000     0.000000000000     0.000000000000     9.012182201000
          BE         33.750000000000     0.000000000000     0.000000000000     9.012182201000
          BE         38.250000000000     0.000000000000     0.000000000000     9.012182201000
          BE         42.750000000000     0.000000000000     0.000000000000     9.012182201000
          BE         47.250000000000     0.000000000000     0.000000000000     9.012182201000
          BE         51.750000000000     0.000000000000     0.000000000000     9.012182201000

  Running in d2h symmetry.

  Rotational constants: A = ************  B =      0.00008  C =      0.00008 [cm^-1]
  Rotational constants: A = ************  B =      2.40804  C =      2.40804 [MHz]
  Nuclear repulsion =  125.352430904847679

  Charge       = 0
  Multiplicity = 1
  Electrons    = 96
  Nalpha       = 48
  Nbeta        = 48

  ==> Algorithm <==

  SCF Algorithm Type is PK.
  DIIS enabled.
  MOM disabled.
  Fractional occupation disabled.
  Guess Type is SAD.
  Energy threshold   = 1.00e-10
  Density threshold  = 1.00e-08
  Integral threshold = 0.00e+00

  ==> Primary Basis <==

  Basis Set: 6-31G
    Number of shells: 120
    Number of basis function: 216
    Number of Cartesian functions: 216
    Spherical Harmonics?: false
    Max angular momentum: 1

  -AO BASIS SET INFORMATION:
    Name                   = 6-31G
    Total number of shells = 120
    Number of primitives   = 336
    Number of AO           = 216
    Number of SO           = 216
    Maximum AM             = 1
    Spherical Harmonics    = FALSE

  -Contraction Scheme:
    Atom   Type   All Primitives // Shells:
   ------ ------ --------------------------
       1    BE     10s 4p // 3s 2p 
       2    BE     10s 4p // 3s 2p 
       3    BE     10s 4p // 3s 2p 
       4    BE     10s 4p // 3s 2p 
       5    BE     10s 4p // 3s 2p 
       6    BE     10s 4p // 3s 2p 
       7    BE     10s 4p // 3s 2p 
       8    BE     10s 4p // 3s 2p 
       9    BE     10s 4p // 3s 2p 
      10    BE     10s 4p // 3s 2p 
      11    BE     10s 4p // 3s 2p 
      12    BE     10s 4p // 3s 2p 
      13    BE     10s 4p // 3s 2p 
      14    BE     10s 4p // 3s 2p 
      15    BE     10s 4p // 3s 2p 
      16    BE     10s 4p // 3s 2p 
      17    BE     10s 4p // 3s 2p 
      18    BE     10s 4p // 3s 2p 
      19    BE     10s 4p // 3s 2p 
      20    BE     10s 4p // 3s 2p 
      21    BE     10s 4p // 3s 2p 
      22    BE     10s 4p // 3s 2p 
      23    BE     10s 4p // 3s 2p 
      24    BE     10s 4p // 3s 2p 

  ==> AO Basis Functions <==

    [ 6-31G ]
    cartesian
    ****
   BE   1
    S   6 1.00
                      1264.58570000           0.00194480
                       189.93681000           0.01483510
                        43.15908900           0.07209060
                        12.09866300           0.23715420
                         3.80632320           0.46919870
                         1.27289030           0.35652020
    S   3 1.00
                         3.19646310          -0.11264870
                         0.74781330          -0.22950640
                         0.21996630           1.18691670
    P   3 1.00
                         3.19646310           0.05598020
                         0.74781330           0.26155060
                         0.21996630           0.79397230
    S   1 1.00
                         0.08230990           1.00000000
    P   1 1.00
                         0.08230990           1.00000000
    ****
   BE   2
    S   6 1.00
                      1264.58570000           0.00194480
                       189.93681000           0.01483510
                        43.15908900           0.07209060
                        12.09866300           0.23715420
                         3.80632320           0.46919870
                         1.27289030           0.35652020
    S   3 1.00
                         3.19646310          -0.11264870
                         0.74781330          -0.22950640
                         0.21996630           1.18691670
    P   3 1.00
                         3.19646310           0.05598020
                         0.74781330           0.26155060
                         0.21996630           0.79397230
    S   1 1.00
                         0.08230990           1.00000000
    P   1 1.00
                         0.08230990           1.00000000
    ****
   BE   3
    S   6 1.00
                      1264.58570000           0.00194480
                       189.93681000           0.01483510
                        43.15908900           0.07209060
                        12.09866300           0.23715420
                         3.80632320           0.46919870
                         1.27289030           0.35652020
    S   3 1.00
                         3.19646310          -0.11264870
                         0.74781330          -0.22950640
                         0.21996630           1.18691670
    P   3 1.00
                         3.19646310           0.05598020
                         0.74781330           0.26155060
                         0.21996630           0.79397230
    S   1 1.00
                         0.08230990           1.00000000
    P   1 1.00
                         0.08230990           1.00000000
    ****
   BE   4
    S   6 1.00
                      1264.58570000           0.00194480
                       189.93681000           0.01483510
                        43.15908900           0.07209060
                        12.09866300           0.23715420
                         3.80632320           0.46919870
                         1.27289030           0.35652020
    S   3 1.00
                         3.19646310          -0.11264870
                         0.74781330          -0.22950640
                         0.21996630           1.18691670
    P   3 1.00
                         3.19646310           0.05598020
                         0.74781330           0.26155060
                         0.21996630           0.79397230
    S   1 1.00
                         0.08230990           1.00000000
    P   1 1.00
                         0.08230990           1.00000000
    ****
   BE   5
    S   6 1.00
                      1264.58570000           0.00194480
                       189.93681000           0.01483510
                        43.15908900           0.07209060
                        12.09866300           0.23715420
                         3.80632320           0.46919870
                         1.27289030           0.35652020
    S   3 1.00
                         3.19646310          -0.11264870
                         0.74781330          -0.22950640
                         0.21996630           1.18691670
    P   3 1.00
                         3.19646310           0.05598020
                         0.74781330           0.26155060
                         0.21996630           0.79397230
    S   1 1.00
                         0.08230990           1.00000000
    P   1 1.00
                         0.08230990           1.00000000
    ****
   BE   6
    S   6 1.00
                      1264.58570000           0.00194480
                       189.93681000           0.01483510
                        43.15908900           0.07209060
                        12.09866300           0.23715420
                         3.80632320           0.46919870
                         1.27289030           0.35652020
    S   3 1.00
                         3.19646310          -0.11264870
                         0.74781330          -0.22950640
                         0.21996630           1.18691670
    P   3 1.00
                         3.19646310           0.05598020
                         0.74781330           0.26155060
                         0.21996630           0.79397230
    S   1 1.00
                         0.08230990           1.00000000
    P   1 1.00
                         0.08230990           1.00000000
    ****
   BE   7
    S   6 1.00
                      1264.58570000           0.00194480
                       189.93681000           0.01483510
                        43.15908900           0.07209060
                        12.09866300           0.23715420
                         3.80632320           0.46919870
                         1.27289030           0.35652020
    S   3 1.00
                         3.19646310          -0.11264870
                         0.74781330          -0.22950640
                         0.21996630           1.18691670
    P   3 1.00
                         3.19646310           0.05598020
                         0.74781330           0.26155060
                         0.21996630           0.79397230
    S   1 1.00
                         0.08230990           1.00000000
    P   1 1.00
                         0.08230990           1.00000000
    ****
   BE   8
    S   6 1.00
                      1264.58570000           0.00194480
                       189.93681000           0.01483510
                        43.15908900           0.07209060
                        12.09866300           0.23715420
                         3.80632320           0.46919870
                         1.27289030           0.35652020
    S   3 1.00
                         3.19646310          -0.11264870
                         0.74781330          -0.22950640
                         0.21996630           1.18691670
    P   3 1.00
                         3.19646310           0.05598020
                         0.74781330           0.26155060
                         0.21996630           0.79397230
    S   1 1.00
                         0.08230990           1.00000000
    P   1 1.00
                         0.08230990           1.00000000
    ****
   BE   9
    S   6 1.00
                      1264.58570000           0.00194480
                       189.93681000           0.01483510
                        43.15908900           0.07209060
                        12.09866300           0.23715420
                         3.80632320           0.46919870
                         1.27289030           0.35652020
    S   3 1.00
                         3.19646310          -0.11264870
                         0.74781330          -0.22950640
                         0.21996630           1.18691670
    P   3 1.00
                         3.19646310           0.05598020
                         0.74781330           0.26155060
                         0.21996630           0.79397230
    S   1 1.00
                         0.08230990           1.00000000
    P   1 1.00
                         0.08230990           1.00000000
    ****
   BE  10
    S   6 1.00
                      1264.58570000           0.00194480
                       189.93681000           0.01483510
                        43.15908900           0.07209060
                        12.09866300           0.23715420
                         3.80632320           0.46919870
                         1.27289030           0.35652020
    S   3 1.00
                         3.19646310          -0.11264870
                         0.74781330          -0.22950640
                         0.21996630           1.18691670
    P   3 1.00
                         3.19646310           0.05598020
                         0.74781330           0.26155060
                         0.21996630           0.79397230
    S   1 1.00
                         0.08230990           1.00000000
    P   1 1.00
                         0.08230990           1.00000000
    ****
   BE  11
    S   6 1.00
                      1264.58570000           0.00194480
                       189.93681000           0.01483510
                        43.15908900           0.07209060
                        12.09866300           0.23715420
                         3.80632320           0.46919870
                         1.27289030           0.35652020
    S   3 1.00
                         3.19646310          -0.11264870
                         0.74781330          -0.22950640
                         0.21996630           1.18691670
    P   3 1.00
                         3.19646310           0.05598020
                         0.74781330           0.26155060
                         0.21996630           0.79397230
    S   1 1.00
                         0.08230990           1.00000000
    P   1 1.00
                         0.08230990           1.00000000
    ****
   BE  12
    S   6 1.00
                      1264.58570000           0.00194480
                       189.93681000           0.01483510
                        43.15908900           0.07209060
                        12.09866300           0.23715420
                         3.80632320           0.46919870
                         1.27289030           0.35652020
    S   3 1.00
                         3.19646310          -0.11264870
                         0.74781330          -0.22950640
                         0.21996630           1.18691670
    P   3 1.00
                         3.19646310           0.05598020
                         0.74781330           0.26155060
                         0.21996630           0.79397230
    S   1 1.00
                         0.08230990           1.00000000
    P   1 1.00
                         0.08230990           1.00000000
    ****

  ==> Pre-Iterations <==

   -------------------------------------------------------
    Irrep   Nso     Nmo     Nalpha   Nbeta   Ndocc  Nsocc
   -------------------------------------------------------
     Ag        60      60       0       0       0       0
     B1g       24      24       0       0       0       0
     B2g       24      24       0       0       0       0
     B3g        0       0       0       0       0       0
     Au         0       0       0       0       0       0
     B1u       24      24       0       0       0       0
     B2u       24      24       0       0       0       0
     B3u       60      60       0       0       0       0
   -------------------------------------------------------
    Total     216     216      48      48      48       0
   -------------------------------------------------------

  ==> Integral Setup <==

  Using in-core PK algorithm.
   Calculation information:
      Number of atoms:                  24
      Number of AO shells:             120
      Number of primitives:            336
      Number of atomic orbitals:       216
      Number of basis functions:       216

      Integral cutoff                 1.00e-12
      Number of threads:                 1

  Performing in-core PK
  Using 549269532 doubles for integral storage.
  We computed 727105 shell quartets total.
  Whereas there are 26357430 unique shell quartets.
  ==> DiskJK: Disk-Based J/K Matrices <==

    J tasked:                  Yes
    K tasked:                  Yes
    wK tasked:                  No
    Memory (MB):             17166
    Schwarz Cutoff:          1E-12

    OpenMP threads:              1
  Minimum eigenvalue in the overlap matrix is 1.0041591207E-01.
  Using Symmetric Orthogonalization.
  SCF Guess: Superposition of Atomic Densities via on-the-fly atomic UHF.

  ==> Iterations <==

                        Total Energy        Delta E     RMS |[F,P]|

   @RHF iter   0:  -349.62313073055691   -3.49623e+02   8.21288e-04 
   @RHF iter   1:  -349.60728453179127    1.58462e-02   1.82399e-04 
   @RHF iter   2:  -349.60828023984408   -9.95708e-04   6.02578e-05 DIIS
   @RHF iter   3:  -349.60841051226089   -1.30272e-04   2.98786e-06 DIIS
   @RHF iter   4:  -349.60841074284065   -2.30580e-07   1.27224e-07 DIIS
   @RHF iter   5:  -349.60841074313032   -2.89674e-10   2.45197e-08 DIIS
   @RHF iter   6:  -349.60841074314249   -1.21645e-11   3.01012e-09 DIIS

  ==> Post-Iterations <==

    Orbital Energies (a.u.)
    -----------------------

    Doubly Occupied:                                                      

       1Ag    -4.708045     1B3u   -4.708045     2B3u   -4.707928  
       2Ag    -4.707928     3Ag    -4.707887     3B3u   -4.707887  
       4B3u   -4.707871     4Ag    -4.707871     5B3u   -4.707863  
       5Ag    -4.707863     6B3u   -4.707859     6Ag    -4.707859  
       7B3u   -4.707857     7Ag    -4.707857     8B3u   -4.707856  
       8Ag    -4.707856     9B3u   -4.707856     9Ag    -4.707855  
      10B3u   -4.707854    10Ag    -4.707853    11B3u   -4.707852  
      11Ag    -4.707851    12B3u   -4.707374    12Ag    -4.707374  
      13Ag    -0.317457    13B3u   -0.317146    14Ag    -0.316617  
      14B3u   -0.315873    15Ag    -0.314919    15B3u   -0.313763  
      16Ag    -0.312414    16B3u   -0.310885    17Ag    -0.309191  
      17B3u   -0.307348    18Ag    -0.305379    18B3u   -0.303307  
      19Ag    -0.301160    19B3u   -0.298967    20Ag    -0.296763  
      20B3u   -0.294584    21Ag    -0.292471    21B3u   -0.290465  
      22Ag    -0.288607    22B3u   -0.286941    23Ag    -0.285506  
      23B3u   -0.284340    24Ag    -0.283475    24B3u   -0.282938  

    Virtual:                                                              

      25Ag     0.037738    25B3u    0.038879    26Ag     0.040779  
      26B3u    0.043417    27Ag     0.046764    27B3u    0.050782  
      28Ag     0.055430    28B3u    0.060661    29Ag     0.066428  
       1B2u    0.068177     1B1u    0.068177     1B2g    0.068479  
       1B1g    0.068479     2B1u    0.068993     2B2u    0.068993  
       2B2g    0.069712     2B1g    0.069712     3B1u    0.070629  
       3B2u    0.070629     3B2g    0.071733     3B1g    0.071733  
      29B3u    0.072678     4B1u    0.073011     4B2u    0.073011  
       4B1g    0.074445     4B2g    0.074445     5B2u    0.076019  
       5B1u    0.076019     5B1g    0.077711     5B2g    0.077711  
      30Ag     0.079357     6B2u    0.079496     6B1u    0.079496  
       6B1g    0.081349     6B2g    0.081349     7B2u    0.083242  
       7B1u    0.083242     7B1g    0.085145     7B2g    0.085145  
      30B3u    0.086407     8B1u    0.087027     8B2u    0.087027  
       8B1g    0.088855     8B2g    0.088855     9B1u    0.090599  
       9B2u    0.090599     9B2g    0.092226     9B1g    0.092226  
      10B2u    0.093707    10B1u    0.093707    31Ag     0.093759  
      10B2g    0.095016    10B1g    0.095016    11B1u    0.096127  
      11B2u    0.096127    11B2g    0.097020    11B1g    0.097020  
      12B2u    0.097676    12B1u    0.097676    12B2g    0.098082  
      12B1g    0.098082    31B3u    0.101337    32Ag     0.109050  
      32B3u    0.116789    33Ag     0.124423    33B3u    0.131801  
      34Ag     0.138751    34B3u    0.145084    35Ag     0.150609  
      35B3u    0.155140    36Ag     0.158513    36B3u    0.160599  
      37Ag     0.395911    37B3u    0.396476    38Ag     0.397430  
      38B3u    0.398775    39Ag     0.400506    39B3u    0.402614  
      40Ag     0.405083    40B3u    0.407889    41Ag     0.411002  
      41B3u    0.414388    42Ag     0.418009    42B3u    0.421825  
      43Ag     0.425797    43B3u    0.429880    44Ag     0.434031  
      44B3u    0.438203    45Ag     0.442343    13B2u    0.442669  
      13B1u    0.442669    13B1g    0.443079    13B2g    0.443079  
      14B2u    0.443774    14B1u    0.443774    14B1g    0.444758  
      14B2g    0.444758    15B2u    0.446031    15B1u    0.446031  
      45B3u    0.446391    15B1g    0.447593    15B2g    0.447593  
      16B2u    0.449443    16B1u    0.449443    46Ag     0.450275  
      16B1g    0.451576    16B2g    0.451576    46B3u    0.453908  
      17B2u    0.453987    17B1u    0.453987    17B2g    0.456662  
      17B1g    0.456662    47Ag     0.457178    18B1u    0.459587  
      18B2u    0.459587    47B3u    0.459948    48Ag     0.462031  
      18B1g    0.462736    18B2g    0.462736    48B3u    0.464296  
      49Ag     0.464349    19B1u    0.466078    19B2u    0.466078  
      19B2g    0.469570    19B1g    0.469570    20B2u    0.473162  
      20B1u    0.473162    20B2g    0.476790    20B1g    0.476790  
      21B2u    0.480382    21B1u    0.480382    21B2g    0.483856  
      21B1g    0.483856    22B2u    0.487125    22B1u    0.487125  
      22B2g    0.490098    22B1g    0.490098    23B2u    0.492684  
      23B1u    0.492684    23B1g    0.494802    23B2g    0.494802  
      24B2u    0.496377    24B1u    0.496377    24B2g    0.497353  
      24B1g    0.497353    49B3u    0.523576    50Ag     0.524982  
      50B3u    0.527219    51Ag     0.530160    51B3u    0.533685  
      52Ag     0.537704    52B3u    0.542157    53Ag     0.547017  
      53B3u    0.552281    54Ag     0.557971    54B3u    0.564120  
      55Ag     0.570773    55B3u    0.577979    56Ag     0.585776  
      56B3u    0.594178    57Ag     0.603154    57B3u    0.612604  
      58Ag     0.622326    58B3u    0.631995    59Ag     0.641154  
      59B3u    0.649234    60Ag     0.655615    60B3u    0.659724  

    Final Occupation by Irrep:
             Ag   B1g   B2g   B3g    Au   B1u   B2u   B3u 
    DOCC [    24,    0,    0,    0,    0,    0,    0,   24 ]

  Energy converged.

  @RHF Final Energy:  -349.60841074314249

   => Energetics <=

    Nuclear Repulsion Energy =            125.3524309048476795
    One-Electron Energy =                -709.4842412123726945
    Two-Electron Energy =                 234.5233995643826290
    DFT Exchange-Correlation Energy =       0.0000000000000000
    Empirical Dispersion Energy =           0.0000000000000000
    PCM Polarization Energy =               0.0000000000000000
    EFP Energy =                            0.0000000000000000
    Total Energy =                       -349.6084107431423718


  Saving occupied orbitals to File 180.

*** tstop() called on chemistry.org at Mon Jan  8 11:15:52 2018
Module time:
	user time   =       7.71 seconds =       0.13 minutes
	system time =       0.97 seconds =       0.02 minutes
	total time  =          9 seconds =       0.15 minutes
Total time:
	user time   =       7.71 seconds =       0.13 minutes
	system time =       0.97 seconds =       0.02 minutes
	total time  =          9 seconds =       0.15 minutes


Properties will be evaluated at   0.000000,   0.000000,   0.000000 Bohr

Properties computed using the SCF density matrix

  Nuclear Dipole Moment: (a.u.)
     X:     0.0000      Y:     0.0000      Z:     0.0000

  Electronic Dipole Moment: (a.u.)
     X:     0.0000      Y:     0.0000      Z:     0.0000

  Dipole Moment: (a.u.)
     X:     0.0000      Y:     0.0000      Z:     0.0000     Total:     0.0000

  Dipole Moment: (Debye)
     X:     0.0000      Y:     0.0000      Z:     0.0000     Total:     0.0000

 MINTS: Wrapper to libmints.
   by Justin Turney

   Calculation information:
      Number of atoms:                  24
      Number of AO shells:             120
      Number of SO shells:              60
      Number of primitives:            336
      Number of atomic orbitals:       216
      Number of basis functions:       216

      Number of irreps:                  8
      Integral cutoff                 0.00e+00
      Number of functions per irrep: [  60   24   24    0    0   24   24   60 ]

 OEINTS: Overlap, kinetic, potential, dipole, and quadrupole integrals
         stored in file 35.

      Computing two-electron integrals...done
      Computed 37089884 non-zero two-electron integrals.
        Stored in file 33.


*** tstart() called on chemistry.org
*** at Mon Jan  8 11:16:44 2018


	Wfn Parameters:
	--------------------
	Wavefunction         = CCSD_T
	Number of irreps     = 8
	Number of MOs        = 216
	Number of active MOs = 192
	AO-Basis             = NONE
	Semicanonical        = false
	Reference            = RHF
	Print Level          = 1

	IRREP	# MOs	# FZDC	# DOCC	# SOCC	# VIRT	# FZVR
	-----	-----	------	------	------	------	------
	 Ag	   60	    12	    12	    0	    36	    0
	 B1g	   24	    0	    0	    0	    24	    0
	 B2g	   24	    0	    0	    0	    24	    0
	 B3g	   0	    0	    0	    0	    0	    0
	 Au	   0	    0	    0	    0	    0	    0
	 B1u	   24	    0	    0	    0	    24	    0
	 B2u	   24	    0	    0	    0	    24	    0
	 B3u	   60	    12	    12	    0	    36	    0
	Transforming integrals...
	IWL integrals will be deleted.
	(OO|OO)...
	Presorting SO-basis two-electron integrals.
	Sorting File: SO Ints (nn|nn) nbuckets = 1
	Transforming the one-electron integrals and constructing Fock matrices
	Starting first half-transformation.
	Sorting half-transformed integrals.
	First half integral transformation complete.
	Starting second half-transformation.
	Two-electron integral transformation complete.
	(OO|OV)...
	Starting second half-transformation.
	Two-electron integral transformation complete.
	(OO|VV)...
	Starting second half-transformation.
	Two-electron integral transformation complete.
	(OV|OO)...
	Starting first half-transformation.
	Sorting half-transformed integrals.
	First half integral transformation complete.
	Starting second half-transformation.
	Two-electron integral transformation complete.
	(OV|OV)...
	Starting second half-transformation.
	Two-electron integral transformation complete.
	(OV|VV)...
	Starting second half-transformation.
	Two-electron integral transformation complete.
	(VV|OO)...
	Starting first half-transformation.
	Sorting half-transformed integrals.
	First half integral transformation complete.
	Starting second half-transformation.
	Two-electron integral transformation complete.
	(VV|OV)...
	Starting second half-transformation.
	Two-electron integral transformation complete.
	(VV|VV)...
	Starting second half-transformation.
	Two-electron integral transformation complete.
	Frozen core energy     =   -420.64722227093421

	Size of irrep 0 of <ab|cd> integrals:     23.971 (MW) /    191.767 (MB)
	Size of irrep 1 of <ab|cd> integrals:     11.944 (MW) /     95.551 (MB)
	Size of irrep 2 of <ab|cd> integrals:     11.944 (MW) /     95.551 (MB)
	Size of irrep 3 of <ab|cd> integrals:      5.308 (MW) /     42.467 (MB)
	Size of irrep 4 of <ab|cd> integrals:      5.308 (MW) /     42.467 (MB)
	Size of irrep 5 of <ab|cd> integrals:     11.944 (MW) /     95.551 (MB)
	Size of irrep 6 of <ab|cd> integrals:     11.944 (MW) /     95.551 (MB)
	Size of irrep 7 of <ab|cd> integrals:     23.971 (MW) /    191.767 (MB)
	Total:                                   106.334 (MW) /    850.674 (MB)

	Size of irrep 0 of <ia|bc> integrals:      4.230 (MW) /     33.841 (MB)
	Size of irrep 1 of <ia|bc> integrals:      1.991 (MW) /     15.925 (MB)
	Size of irrep 2 of <ia|bc> integrals:      1.991 (MW) /     15.925 (MB)
	Size of irrep 3 of <ia|bc> integrals:      0.000 (MW) /      0.000 (MB)
	Size of irrep 4 of <ia|bc> integrals:      0.000 (MW) /      0.000 (MB)
	Size of irrep 5 of <ia|bc> integrals:      1.991 (MW) /     15.925 (MB)
	Size of irrep 6 of <ia|bc> integrals:      1.991 (MW) /     15.925 (MB)
	Size of irrep 7 of <ia|bc> integrals:      4.230 (MW) /     33.841 (MB)
	Total:                                    16.423 (MW) /    131.383 (MB)

	Size of irrep 0 of tijab amplitudes:       1.410 (MW) /     11.280 (MB)
	Size of irrep 1 of tijab amplitudes:       0.000 (MW) /      0.000 (MB)
	Size of irrep 2 of tijab amplitudes:       0.000 (MW) /      0.000 (MB)
	Size of irrep 3 of tijab amplitudes:       0.000 (MW) /      0.000 (MB)
	Size of irrep 4 of tijab amplitudes:       0.000 (MW) /      0.000 (MB)
	Size of irrep 5 of tijab amplitudes:       0.000 (MW) /      0.000 (MB)
	Size of irrep 6 of tijab amplitudes:       0.000 (MW) /      0.000 (MB)
	Size of irrep 7 of tijab amplitudes:       1.410 (MW) /     11.280 (MB)
	Total:                                     2.820 (MW) /     22.561 (MB)

	Nuclear Rep. energy          =    125.35243090484771
	SCF energy                   =   -349.60841074314249
	One-electron energy          =    -94.16620619414570
	Two-electron energy          =     39.85258681708322
	Reference energy             =   -349.60841074314897

*** tstop() called on chemistry.org at Mon Jan  8 11:17:07 2018
Module time:
	user time   =      14.80 seconds =       0.25 minutes
	system time =       7.73 seconds =       0.13 minutes
	total time  =         23 seconds =       0.38 minutes
Total time:
	user time   =      74.12 seconds =       1.24 minutes
	system time =       9.16 seconds =       0.15 minutes
	total time  =         84 seconds =       1.40 minutes

*** tstart() called on chemistry.org
*** at Mon Jan  8 11:17:07 2018

            **************************
            *                        *
            *        CCENERGY        *
            *                        *
            **************************

    Nuclear Rep. energy (wfn)     =  125.352430904847708
    SCF energy          (wfn)     = -349.608410743142485
    Reference energy    (file100) = -349.608410743148966

    Input parameters:
    -----------------
    Wave function   =     CCSD_T
    Reference wfn   =     RHF
    Brueckner       =     No
    Memory (Mbytes) =     24000.0
    Maxiter         =     50
    R_Convergence   =     1.0e-07
    E_Convergence   =     1.0e-10
    Restart         =     Yes
    DIIS            =     Yes
    AO Basis        =     NONE
    ABCD            =     NEW
    Cache Level     =     2
    Cache Type      =     LOW
    Print Level     =     1
    Num. of threads =     1
    # Amps to Print =     10
    Print MP2 Amps? =     No
    Analyze T2 Amps =     No
    Print Pair Ener =     No
    Local CC        =     No
    SCS-MP2         =     False
    SCSN-MP2        =     False
    SCS-CCSD        =     False

MP2 correlation energy -0.5691304832238115
                Solving CC Amplitude Equations
                ------------------------------
  Iter             Energy              RMS        T1Diag      D1Diag    New D1Diag    D2Diag
  ----     ---------------------    ---------   ----------  ----------  ----------   --------
     0        -0.569130483223778    0.000e+00    0.000000    0.000000    0.000000    0.168056
     1        -0.838764496978532    4.078e-01    0.004447    0.006788    0.006788    0.252443
     2        -1.102020899768085    2.131e-01    0.011987    0.018915    0.018915    0.339897
     3        -1.096886872842070    1.935e-02    0.013241    0.021241    0.021241    0.339629
     4        -1.102326577122443    5.774e-03    0.013536    0.021820    0.021820    0.341475
     5        -1.103604616641539    1.193e-03    0.013630    0.022027    0.022027    0.341875
     6        -1.102786169849709    7.504e-04    0.013606    0.021990    0.021990    0.341597
     7        -1.102664647586632    9.768e-05    0.013604    0.021988    0.021988    0.341556
     8        -1.102700731083753    5.636e-05    0.013606    0.021991    0.021991    0.341569
     9        -1.102716744844791    1.945e-05    0.013606    0.021992    0.021992    0.341574
    10        -1.102716418160890    9.316e-06    0.013606    0.021992    0.021992    0.341575
    11        -1.102715893805546    5.450e-06    0.013606    0.021991    0.021991    0.341575
    12        -1.102715915333396    1.986e-06    0.013606    0.021991    0.021991    0.341575
    13        -1.102716001605318    1.034e-06    0.013606    0.021991    0.021991    0.341575
    14        -1.102716020815959    3.857e-07    0.013606    0.021991    0.021991    0.341575
    15        -1.102716022841125    1.644e-07    0.013606    0.021991    0.021991    0.341575
    16        -1.102716013673247    8.279e-08    0.013606    0.021991    0.021991    0.341575
    17        -1.102716011546235    2.910e-08    0.013606    0.021991    0.021991    0.341575
    18        -1.102716009945891    7.850e-09    0.013606    0.021991    0.021991    0.341575
    19        -1.102716009379459    3.723e-09    0.013606    0.021991    0.021991    0.341575
    20        -1.102716009368175    2.150e-09    0.013606    0.021991    0.021991    0.341575
    21        -1.102716009459720    1.201e-09    0.013606    0.021991    0.021991    0.341575

    Iterations converged.


    Largest TIA Amplitudes:
              0  12        -0.0178695030
             12 144        -0.0176989278
              1  13         0.0174270608
             13 145         0.0170725533
              2  14         0.0166532554
             14 146         0.0161861350
              3  15         0.0156860111
             15 147         0.0151645805
              4  16         0.0146299643
             16 148         0.0140866932

    Largest TIjAb Amplitudes:
     12  12 132 132        -0.0123598827
      1   1   1   1        -0.0123013360
      0   0   0   0        -0.0122985920
     13  13 133 133        -0.0121762649
      2   2   2   2        -0.0120038520
     23  23  47  47        -0.0118932776
     23  23  71  71        -0.0118932776
     14  14 134 134        -0.0117948712
     11  11  95  95        -0.0117147833
     11  11 119 119        -0.0117147833

    SCF energy       (wfn)                    = -349.608410743142485
    Reference energy (file100)                = -349.608410743148966

    Opposite-spin MP2 correlation energy      =   -0.562208838738484
    Same-spin MP2 correlation energy          =   -0.006921644485294
    MP2 correlation energy                    =   -0.569130483223812
      * MP2 total energy                      = -350.177541226372796

    Opposite-spin CCSD correlation energy     =   -1.095304514690859
    Same-spin CCSD correlation energy         =   -0.007411499893108
    CCSD correlation energy                   =   -1.102716009459720
      * CCSD total energy                     = -350.711126752608664


*** tstop() called on chemistry.org at Mon Jan  8 11:18:38 2018
Module time:
	user time   =      45.03 seconds =       0.75 minutes
	system time =      21.10 seconds =       0.35 minutes
	total time  =         91 seconds =       1.52 minutes
Total time:
	user time   =     119.15 seconds =       1.99 minutes
	system time =      30.26 seconds =       0.50 minutes
	total time  =        175 seconds =       2.92 minutes

*** tstart() called on chemistry.org
*** at Mon Jan  8 11:18:38 2018

            **************************
            *                        *
            *        CCTRIPLES       *
            *                        *
            **************************


    Wave function   =    CCSD_T
    Reference wfn   =      RHF

    Nuclear Rep. energy (wfn)                =  125.352430904847708
    SCF energy          (wfn)                = -349.608410743142485
    Reference energy    (file100)            = -349.608410743148966
    CCSD energy         (file100)            =   -1.102716009459720
    Total CCSD energy   (file100)            = -350.711126752608664

    Number of ijk index combinations:             2600
    Memory available in words        :      3000000000
    ~Words needed per explicit thread:          186624
    Number of threads for explicit ijk threading:    1

    (T) energy                                =   -0.001519782097194
      * CCSD(T) total energy                  = -350.712646534705868


*** tstop() called on chemistry.org at Mon Jan  8 11:21:29 2018
Module time:
	user time   =     137.35 seconds =       2.29 minutes
	system time =      33.06 seconds =       0.55 minutes
	total time  =        171 seconds =       2.85 minutes
Total time:
	user time   =     256.50 seconds =       4.28 minutes
	system time =      63.32 seconds =       1.06 minutes
	total time  =        346 seconds =       5.77 minutes

*** Psi4 exiting successfully. Buy a developer a beer!
