    -----------------------------------------------------------------------
          Psi4: An Open-Source Ab Initio Electronic Structure Package
                              Psi4 1.0.0 Driver

                          Git: Rev {master} 6a9a71b dirty

    J. M. Turney, A. C. Simmonett, R. M. Parrish, E. G. Hohenstein,
    F. A. Evangelista, J. T. Fermann, B. J. Mintz, L. A. Burns, J. J. Wilke,
    M. L. Abrams, N. J. Russ, M. L. Leininger, C. L. Janssen, E. T. Seidl,
    W. D. Allen, H. F. Schaefer, R. A. King, E. F. Valeev, C. D. Sherrill,
    and T. D. Crawford, WIREs Comput. Mol. Sci. 2, 556-565 (2012)
    (doi: 10.1002/wcms.93)

                         Additional Contributions by
    A. E. DePrince, U. Bozkaya, A. Yu. Sokolov, D. G. A. Smith, R. Di Remigio,
    R. M. Richard, J. F. Gonthier, H. R. McAlexander, M. Saitow, and
    B. P. Pritchard
    -----------------------------------------------------------------------


    Psi4 started on: Fri Jul 28 10:36:23 2017

    Process ID:  16184
    PSI4DATADIR: /home/yhliu/psi4conda/share/psi4
    Memory level set to 256.000 MB

  ==> Input File <==

--------------------------------------------------------------------------

memory 10 Gb
molecule be2 {
0 1
Be  0.0  0.0  0.0
Be  0.0  0.0  1.300 
units angstrom    
}

set basis 6-31g
set freeze_core true
set PRINT_BASIS True
set PUREAM False
set E_CONVERGENCE 1e-14
energy('fci')
--------------------------------------------------------------------------
/home/yhliu/psi4conda/lib/python2.7/site-packages/v2rdm_casscf/v2rdm_casscf.so loaded.

  Memory set to  10.000 GiB by Python script.

*** tstart() called on compute-0-1.local
*** at Fri Jul 28 10:36:24 2017


         ---------------------------------------------------------
                                   SCF
            by Justin Turney, Rob Parrish, and Andy Simmonett
                              RHF Reference
                        1 Threads,  10000 MiB Core
         ---------------------------------------------------------

  ==> Geometry <==

    Molecular point group: d2h
    Full point group: D_inf_h

    Geometry (in Angstrom), charge = 0, multiplicity = 1:

       Center              X                  Y                   Z               Mass       
    ------------   -----------------  -----------------  -----------------  -----------------
          BE          0.000000000000     0.000000000000    -0.650000000000     9.012182201000
          BE          0.000000000000     0.000000000000     0.650000000000     9.012182201000

  Running in d2h symmetry.

  Rotational constants: A = ************  B =      2.21365  C =      2.21365 [cm^-1]
  Rotational constants: A = ************  B =  66363.68966  C =  66363.68966 [MHz]
  Nuclear repulsion =    6.512950259569233

  Charge       = 0
  Multiplicity = 1
  Electrons    = 8
  Nalpha       = 4
  Nbeta        = 4

  ==> Algorithm <==

  SCF Algorithm Type is PK.
  DIIS enabled.
  MOM disabled.
  Fractional occupation disabled.
  Guess Type is SAD.
  Energy threshold   = 1.00e-14
  Density threshold  = 1.00e-08
  Integral threshold = 0.00e+00

  ==> Primary Basis <==

  Basis Set: 6-31G
    Number of shells: 10
    Number of basis function: 18
    Number of Cartesian functions: 18
    Spherical Harmonics?: false
    Max angular momentum: 1

  -AO BASIS SET INFORMATION:
    Name                   = 6-31G
    Total number of shells = 10
    Number of primitives   = 28
    Number of AO           = 18
    Number of SO           = 18
    Maximum AM             = 1
    Spherical Harmonics    = FALSE

  -Contraction Scheme:
    Atom   Type   All Primitives // Shells:
   ------ ------ --------------------------
       1    BE     10s 4p // 3s 2p 
       2    BE     10s 4p // 3s 2p 

  ==> AO Basis Functions <==

    [ 6-31G ]
    cartesian
    ****
   BE   1
    S   6 1.00
                      1264.58570000           0.00194480
                       189.93681000           0.01483510
                        43.15908900           0.07209060
                        12.09866300           0.23715420
                         3.80632320           0.46919870
                         1.27289030           0.35652020
    S   3 1.00
                         3.19646310          -0.11264870
                         0.74781330          -0.22950640
                         0.21996630           1.18691670
    P   3 1.00
                         3.19646310           0.05598020
                         0.74781330           0.26155060
                         0.21996630           0.79397230
    S   1 1.00
                         0.08230990           1.00000000
    P   1 1.00
                         0.08230990           1.00000000
    ****

  ==> Pre-Iterations <==

   -------------------------------------------------------
    Irrep   Nso     Nmo     Nalpha   Nbeta   Ndocc  Nsocc
   -------------------------------------------------------
     Ag         5       5       0       0       0       0
     B1g        0       0       0       0       0       0
     B2g        2       2       0       0       0       0
     B3g        2       2       0       0       0       0
     Au         0       0       0       0       0       0
     B1u        5       5       0       0       0       0
     B2u        2       2       0       0       0       0
     B3u        2       2       0       0       0       0
   -------------------------------------------------------
    Total      18      18       4       4       4       0
   -------------------------------------------------------

  ==> Integral Setup <==

  Using in-core PK algorithm.
   Calculation information:
      Number of atoms:                   2
      Number of AO shells:              10
      Number of primitives:             28
      Number of atomic orbitals:        18
      Number of basis functions:        18

      Integral cutoff                 1.00e-12
      Number of threads:                 1

  Performing in-core PK
  Using 29412 doubles for integral storage.
  We computed 1540 shell quartets total.
  Whereas there are 1540 unique shell quartets.
  ==> DiskJK: Disk-Based J/K Matrices <==

    J tasked:                  Yes
    K tasked:                  Yes
    wK tasked:                  No
    Memory (MB):              7152
    Schwarz Cutoff:          1E-12

    OpenMP threads:              1
  Minimum eigenvalue in the overlap matrix is 1.0547250067E-03.
  Using Symmetric Orthogonalization.
  SCF Guess: Superposition of Atomic Densities via on-the-fly atomic UHF.

  ==> Iterations <==

                        Total Energy        Delta E     RMS |[F,P]|

   @RHF iter   0:   -29.65326986190759   -2.96533e+01   1.62020e-01 
   @RHF iter   1:   -28.79002554502383    8.63244e-01   1.31442e-02 
   @RHF iter   2:   -28.81260711030130   -2.25816e-02   4.16585e-03 DIIS
   @RHF iter   3:   -28.81477115631332   -2.16405e-03   1.65279e-03 DIIS
   @RHF iter   4:   -28.81522947980251   -4.58323e-04   1.99968e-04 DIIS
   @RHF iter   5:   -28.81523868491530   -9.20511e-06   1.39061e-05 DIIS
   @RHF iter   6:   -28.81523871293840   -2.80231e-08   8.13864e-07 DIIS
   @RHF iter   7:   -28.81523871302229   -8.38867e-11   5.93374e-08 DIIS
   @RHF iter   8:   -28.81523871302263   -3.41061e-13   9.08205e-09 DIIS
   @RHF iter   9:   -28.81523871302263   -7.10543e-15   6.34188e-10 DIIS

  ==> Post-Iterations <==

    Orbital Energies (a.u.)
    -----------------------

    Doubly Occupied:                                                      

       1Ag    -4.772538     1B1u   -4.750101     2Ag    -0.487733  
       2B1u   -0.198040  

    Virtual:                                                              

       1B2u   -0.014571     1B3u   -0.014571     3Ag     0.044016  
       1B3g    0.179980     1B2g    0.179980     3B1u    0.292756  
       4Ag     0.318417     2B2u    0.337540     2B3u    0.337540  
       5Ag     0.438125     2B3g    0.568589     2B2g    0.568589  
       4B1u    0.583230     5B1u    1.643387  

    Final Occupation by Irrep:
             Ag   B1g   B2g   B3g    Au   B1u   B2u   B3u 
    DOCC [     2,    0,    0,    0,    0,    2,    0,    0 ]

  Energy converged.

  @RHF Final Energy:   -28.81523871302263

   => Energetics <=

    Nuclear Repulsion Energy =              6.5129502595692328
    One-Electron Energy =                 -50.2395553320272015
    Two-Electron Energy =                  14.9113663594353341
    DFT Exchange-Correlation Energy =       0.0000000000000000
    Empirical Dispersion Energy =           0.0000000000000000
    PCM Polarization Energy =               0.0000000000000000
    EFP Energy =                            0.0000000000000000
    Total Energy =                        -28.8152387130226373


  Saving occupied orbitals to File 180.

*** tstop() called on compute-0-1.local at Fri Jul 28 10:36:24 2017
Module time:
	user time   =       0.20 seconds =       0.00 minutes
	system time =       0.02 seconds =       0.00 minutes
	total time  =          0 seconds =       0.00 minutes
Total time:
	user time   =       0.20 seconds =       0.00 minutes
	system time =       0.02 seconds =       0.00 minutes
	total time  =          0 seconds =       0.00 minutes


Properties will be evaluated at   0.000000,   0.000000,   0.000000 Bohr

Properties computed using the SCF density matrix

  Nuclear Dipole Moment: (a.u.)
     X:     0.0000      Y:     0.0000      Z:     0.0000

  Electronic Dipole Moment: (a.u.)
     X:     0.0000      Y:     0.0000      Z:     0.0000

  Dipole Moment: (a.u.)
     X:     0.0000      Y:     0.0000      Z:     0.0000     Total:     0.0000

  Dipole Moment: (Debye)
     X:     0.0000      Y:     0.0000      Z:     0.0000     Total:     0.0000

 MINTS: Wrapper to libmints.
   by Justin Turney

   Calculation information:
      Number of atoms:                   2
      Number of AO shells:              10
      Number of SO shells:               5
      Number of primitives:             28
      Number of atomic orbitals:        18
      Number of basis functions:        18

      Number of irreps:                  8
      Integral cutoff                 0.00e+00
      Number of functions per irrep: [   5    0    2    2    0    5    2    2 ]

 OEINTS: Overlap, kinetic, potential, dipole, and quadrupole integrals
         stored in file 35.

      Computing two-electron integrals...done
      Computed 2376 non-zero two-electron integrals.
        Stored in file 33.


         ---------------------------------------------------------
                                 D E T C I  

                             C. David Sherrill
                             Matt L. Leininger
                               18 June 1999
         ---------------------------------------------------------


DETCI PARAMETERS: 
   EX LEVEL      =        4      H0 BLOCKSIZE =     1000
   VAL EX LEVEL  =        0      H0 GUESS SIZE=     1000
   H0COUPLINGSIZE=        0      H0 COUPLING  =       no
   MAXITER       =       24      NUM PRINT    =       20
   NUM ROOTS     =        1      ICORE        =        1
   PRINT         =        1      FCI          =      yes
   R CONV        = 1.00e-04      MIXED        =      yes
   E CONV        = 1.00e-14      MIXED4       =      yes
   R4S           =       no      REPL OTF     =       no
   DIAG METHOD   =      SEM
   PRECONDITIONER= DAVIDSON      UPDATE       = DAVIDSON
   S             =   0.0000      Ms0          =      yes
   MAX NUM VECS  =       25
   RESTART       =       no
   GUESS VECTOR  =  H0BLOCK      OPENTYPE     =     NONE
   REF SYM       =     auto
   COLLAPSE SIZE =        1      HD AVG       = EVANGELISTI
   LSE           =       no      LSE ITER     =        0
   HD OTF        =      yes      NO DFILE     =       no
   MPN           =       no      MPN SCHMIDT  =       no
   ZAPTN         =       no      MPN WIGNER   =       no
   PERT Z        =   1.0000      FOLLOW ROOT  =        0
   NUM THREADS   =        1
   FILTER GUESS  =       no      SF RESTRICT  =       no
   OPDM          =       no      TRANS DENSITY=       no

   FILES         =  50 51 52 53

   EX ALLOW      =  1  1  1  1 
   STATE AVERAGE =  1(1.00) 

ORBITALS:
   NMO          =       18
   FROZEN CORE  =        2      RESTR CORE   =        0
   FROZEN VIRT  =        0      RESTR VIRT   =        0
   DROPPED CORE =        2      DROPPED VIRT =        0
   EXPLICIT CORE=        0      ORBS IN CI   =       16
   NUM ALP      =        4      NUM BET      =        4
   NUM ALP EXPL =        2      NUM BET EXPL =        2
   IOPEN        =       no

   DOCC            =   2   0   0   0   0   2   0   0 
   SOCC            =   0   0   0   0   0   0   0   0 

   FROZEN DOCC     =   1   0   0   0   0   1   0   0 
   RESTRICTED DOCC =   0   0   0   0   0   0   0   0 
   ACTIVE          =   4   0   2   2   0   4   2   2 
   RESTRICTED UOCC =   0   0   0   0   0   0   0   0 
   FROZEN UOCC     =   0   0   0   0   0   0   0   0 
         ---------------------------------------------------------


   ==> Setting up CI strings <==

   There are 120 alpha and 120 beta strings
   The CI space requires 1984 (1.98E+03) determinants and 8 blocks


   ==> Transforming CI integrals <==
	Presorting SO-basis two-electron integrals.
	Sorting File: SO Ints (nn|nn) nbuckets = 1
	Transforming the one-electron integrals and constructing Fock matrices
	Starting first half-transformation.
	Sorting half-transformed integrals.
	First half integral transformation complete.
	Starting second half-transformation.
	Two-electron integral transformation complete.

*** H0 Block Eigenvalue = -28.96177755

Find the roots by the Simultaneous Expansion Method (Block Davidson Method)
Using 1 initial trial vectors
Iter  0  Root  1 = -28.961777553   Delta_E -3.369E+00   Delta_C  6.141E-02  
Iter  1  Root  1 = -28.963401229   Delta_E -1.624E-03   Delta_C  6.453E-03  
Iter  2  Root  1 = -28.963427501   Delta_E -2.627E-05   Delta_C  1.898E-03  
Iter  3  Root  1 = -28.963430563   Delta_E -3.062E-06   Delta_C  9.702E-04  
Iter  4  Root  1 = -28.963431866   Delta_E -1.303E-06   Delta_C  6.666E-04  
Iter  5  Root  1 = -28.963432400   Delta_E -5.337E-07   Delta_C  4.173E-04  
Iter  6  Root  1 = -28.963432688   Delta_E -2.879E-07   Delta_C  3.580E-04  
Iter  7  Root  1 = -28.963432854   Delta_E -1.659E-07   Delta_C  2.087E-04  
Iter  8  Root  1 = -28.963432898   Delta_E -4.459E-08   Delta_C  9.725E-05  
Iter  9  Root  1 = -28.963432907   Delta_E -8.729E-09   Delta_C  3.764E-05  
Iter 10  Root  1 = -28.963432908   Delta_E -1.079E-09   Delta_C  1.466E-05  
Iter 11  Root  1 = -28.963432908   Delta_E -1.664E-10   Delta_C  5.849E-06  
Iter 12  Root  1 = -28.963432908   Delta_E -2.728E-11   Delta_C  2.211E-06  
Iter 13  Root  1 = -28.963432908   Delta_E -3.763E-12   Delta_C  8.503E-07  
Iter 14  Root  1 = -28.963432908   Delta_E -5.880E-13   Delta_C  3.240E-07  
Warning: Norm of correction (root 0) is < 1.0E-13
Iter 15  Root  1 = -28.963432908   Delta_E -9.281E-14   Delta_C  1.371E-07  
Warning: Norm of correction (root 0) is < 1.0E-13
Iter 16  Root  1 = -28.963432908   Delta_E -1.554E-14   Delta_C  5.328E-08  
Warning: Norm of correction (root 0) is < 1.0E-13
Iter 17  Root  1 = -28.963432908   Delta_E -3.997E-15   Delta_C  1.800E-08 c

* ROOT 1 CI total energy = -28.9634329081274


The 20 most important determinants

    1   -0.539693  (   56,   56)  2AgX  1B2uX  
    2   -0.539693  (   40,   40)  2AgX  1B3uX  
    3    0.491904  (    0,    0)  2AgX  2B1uX  
    4    0.192760  (   68,   68)  1B2uX  1B3uX  
    5   -0.153344  (   72,   72)  2AgX  3AgX  
    6    0.069316  (   88,   96)  2AgA  2B1uB  1B3gA  1B2uB  
    7    0.069316  (   96,   88)  2AgB  2B1uA  1B3gB  1B2uA  
    8    0.069316  (  104,  112)  2AgA  2B1uB  1B2gA  1B3uB  
    9    0.069316  (  112,  104)  2AgB  2B1uA  1B2gB  1B3uA  
   10    0.060926  (   57,   57)  3AgX  1B2uX  
   11    0.060926  (   41,   41)  3AgX  1B3uX  
   12    0.056757  (   56,   57)  2AgA  3AgB  1B2uX  
   13    0.056757  (   57,   56)  2AgB  3AgA  1B2uX  
   14    0.056757  (   40,   41)  2AgA  3AgB  1B3uX  
   15    0.056757  (   41,   40)  2AgB  3AgA  1B3uX  
   16   -0.053486  (   56,   60)  2AgX  1B2uA  2B2uB  
   17   -0.053486  (   60,   56)  2AgX  1B2uB  2B2uA  
   18   -0.053486  (   40,   44)  2AgX  1B3uA  2B3uB  
   19   -0.053486  (   44,   40)  2AgX  1B3uB  2B3uA  
   20   -0.041468  (   72,   75)  2AgX  3AgA  5AgB  


		 "A good bug is a dead bug" 

			 - Starship Troopers

		 "I didn't write FORTRAN.  That's the problem."

			 - Edward Valeev


*** Psi4 exiting successfully. Buy a developer a beer!
