    -----------------------------------------------------------------------
          Psi4: An Open-Source Ab Initio Electronic Structure Package
                              Psi4 1.0.0 Driver

                          Git: Rev {master} 6a9a71b dirty

    J. M. Turney, A. C. Simmonett, R. M. Parrish, E. G. Hohenstein,
    F. A. Evangelista, J. T. Fermann, B. J. Mintz, L. A. Burns, J. J. Wilke,
    M. L. Abrams, N. J. Russ, M. L. Leininger, C. L. Janssen, E. T. Seidl,
    W. D. Allen, H. F. Schaefer, R. A. King, E. F. Valeev, C. D. Sherrill,
    and T. D. Crawford, WIREs Comput. Mol. Sci. 2, 556-565 (2012)
    (doi: 10.1002/wcms.93)

                         Additional Contributions by
    A. E. DePrince, U. Bozkaya, A. Yu. Sokolov, D. G. A. Smith, R. Di Remigio,
    R. M. Richard, J. F. Gonthier, H. R. McAlexander, M. Saitow, and
    B. P. Pritchard
    -----------------------------------------------------------------------


    Psi4 started on: Fri Jul 28 10:38:39 2017

    Process ID:  16334
    PSI4DATADIR: /home/yhliu/psi4conda/share/psi4
    Memory level set to 256.000 MB

  ==> Input File <==

--------------------------------------------------------------------------

memory 10 Gb
molecule be2 {
0 1
Be  0.0  0.0  0.0
Be  0.0  0.0  2.900 
units angstrom    
}

set basis 6-31g
set freeze_core true
set PRINT_BASIS True
set PUREAM False
set E_CONVERGENCE 1e-14
energy('fci')
--------------------------------------------------------------------------
/home/yhliu/psi4conda/lib/python2.7/site-packages/v2rdm_casscf/v2rdm_casscf.so loaded.

  Memory set to  10.000 GiB by Python script.

*** tstart() called on compute-0-1.local
*** at Fri Jul 28 10:38:39 2017


         ---------------------------------------------------------
                                   SCF
            by Justin Turney, Rob Parrish, and Andy Simmonett
                              RHF Reference
                        1 Threads,  10000 MiB Core
         ---------------------------------------------------------

  ==> Geometry <==

    Molecular point group: d2h
    Full point group: D_inf_h

    Geometry (in Angstrom), charge = 0, multiplicity = 1:

       Center              X                  Y                   Z               Mass       
    ------------   -----------------  -----------------  -----------------  -----------------
          BE          0.000000000000     0.000000000000    -1.450000000000     9.012182201000
          BE          0.000000000000     0.000000000000     1.450000000000     9.012182201000

  Running in d2h symmetry.

  Rotational constants: A = ************  B =      0.44484  C =      0.44484 [cm^-1]
  Rotational constants: A = ************  B =  13335.86629  C =  13335.86629 [MHz]
  Nuclear repulsion =    2.919598392220691

  Charge       = 0
  Multiplicity = 1
  Electrons    = 8
  Nalpha       = 4
  Nbeta        = 4

  ==> Algorithm <==

  SCF Algorithm Type is PK.
  DIIS enabled.
  MOM disabled.
  Fractional occupation disabled.
  Guess Type is SAD.
  Energy threshold   = 1.00e-14
  Density threshold  = 1.00e-08
  Integral threshold = 0.00e+00

  ==> Primary Basis <==

  Basis Set: 6-31G
    Number of shells: 10
    Number of basis function: 18
    Number of Cartesian functions: 18
    Spherical Harmonics?: false
    Max angular momentum: 1

  -AO BASIS SET INFORMATION:
    Name                   = 6-31G
    Total number of shells = 10
    Number of primitives   = 28
    Number of AO           = 18
    Number of SO           = 18
    Maximum AM             = 1
    Spherical Harmonics    = FALSE

  -Contraction Scheme:
    Atom   Type   All Primitives // Shells:
   ------ ------ --------------------------
       1    BE     10s 4p // 3s 2p 
       2    BE     10s 4p // 3s 2p 

  ==> AO Basis Functions <==

    [ 6-31G ]
    cartesian
    ****
   BE   1
    S   6 1.00
                      1264.58570000           0.00194480
                       189.93681000           0.01483510
                        43.15908900           0.07209060
                        12.09866300           0.23715420
                         3.80632320           0.46919870
                         1.27289030           0.35652020
    S   3 1.00
                         3.19646310          -0.11264870
                         0.74781330          -0.22950640
                         0.21996630           1.18691670
    P   3 1.00
                         3.19646310           0.05598020
                         0.74781330           0.26155060
                         0.21996630           0.79397230
    S   1 1.00
                         0.08230990           1.00000000
    P   1 1.00
                         0.08230990           1.00000000
    ****

  ==> Pre-Iterations <==

   -------------------------------------------------------
    Irrep   Nso     Nmo     Nalpha   Nbeta   Ndocc  Nsocc
   -------------------------------------------------------
     Ag         5       5       0       0       0       0
     B1g        0       0       0       0       0       0
     B2g        2       2       0       0       0       0
     B3g        2       2       0       0       0       0
     Au         0       0       0       0       0       0
     B1u        5       5       0       0       0       0
     B2u        2       2       0       0       0       0
     B3u        2       2       0       0       0       0
   -------------------------------------------------------
    Total      18      18       4       4       4       0
   -------------------------------------------------------

  ==> Integral Setup <==

  Using in-core PK algorithm.
   Calculation information:
      Number of atoms:                   2
      Number of AO shells:              10
      Number of primitives:             28
      Number of atomic orbitals:        18
      Number of basis functions:        18

      Integral cutoff                 1.00e-12
      Number of threads:                 1

  Performing in-core PK
  Using 29412 doubles for integral storage.
  We computed 1537 shell quartets total.
  Whereas there are 1540 unique shell quartets.
  ==> DiskJK: Disk-Based J/K Matrices <==

    J tasked:                  Yes
    K tasked:                  Yes
    wK tasked:                  No
    Memory (MB):              7152
    Schwarz Cutoff:          1E-12

    OpenMP threads:              1
  Minimum eigenvalue in the overlap matrix is 4.1529500035E-02.
  Using Symmetric Orthogonalization.
  SCF Guess: Superposition of Atomic Densities via on-the-fly atomic UHF.

  ==> Iterations <==

                        Total Energy        Delta E     RMS |[F,P]|

   @RHF iter   0:   -29.18168558261144   -2.91817e+01   1.93309e-02 
   @RHF iter   1:   -29.12784154115032    5.38440e-02   2.07265e-03 
   @RHF iter   2:   -29.12858225290309   -7.40712e-04   7.43620e-04 DIIS
   @RHF iter   3:   -29.12870493748930   -1.22685e-04   1.96686e-04 DIIS
   @RHF iter   4:   -29.12871470546428   -9.76797e-06   2.35781e-05 DIIS
   @RHF iter   5:   -29.12871480262159   -9.71573e-08   1.74945e-06 DIIS
   @RHF iter   6:   -29.12871480301210   -3.90514e-10   1.88138e-07 DIIS
   @RHF iter   7:   -29.12871480301641   -4.31299e-12   9.88548e-09 DIIS
   @RHF iter   8:   -29.12871480301644   -2.13163e-14   2.16993e-10 DIIS
   @RHF iter   9:   -29.12871480301646   -2.13163e-14   2.94038e-11 DIIS
   @RHF iter  10:   -29.12871480301642    3.55271e-14   9.01791e-13 DIIS
   @RHF iter  11:   -29.12871480301644   -2.13163e-14   3.30376e-14 DIIS
   @RHF iter  12:   -29.12871480301643    1.42109e-14   6.19198e-15 DIIS
   @RHF iter  13:   -29.12871480301644   -7.10543e-15   1.80847e-15 DIIS

  ==> Post-Iterations <==

    Orbital Energies (a.u.)
    -----------------------

    Doubly Occupied:                                                      

       1B1u   -4.708780     1Ag    -4.708774     2Ag    -0.355918  
       2B1u   -0.255003  

    Virtual:                                                              

       3Ag     0.045726     1B2u    0.053986     1B3u    0.053986  
       1B3g    0.114244     1B2g    0.114244     3B1u    0.196718  
       4Ag     0.438737     4B1u    0.457936     2B2u    0.459226  
       2B3u    0.459226     2B2g    0.482306     2B3g    0.482306  
       5Ag     0.514748     5B1u    0.578816  

    Final Occupation by Irrep:
             Ag   B1g   B2g   B3g    Au   B1u   B2u   B3u 
    DOCC [     2,    0,    0,    0,    0,    2,    0,    0 ]

  Energy converged.

  @RHF Final Energy:   -29.12871480301644

   => Energetics <=

    Nuclear Repulsion Energy =              2.9195983922206912
    One-Electron Energy =                 -44.0396762717875561
    Two-Electron Energy =                  11.9913630765504280
    DFT Exchange-Correlation Energy =       0.0000000000000000
    Empirical Dispersion Energy =           0.0000000000000000
    PCM Polarization Energy =               0.0000000000000000
    EFP Energy =                            0.0000000000000000
    Total Energy =                        -29.1287148030164360


  Saving occupied orbitals to File 180.

*** tstop() called on compute-0-1.local at Fri Jul 28 10:38:40 2017
Module time:
	user time   =       0.15 seconds =       0.00 minutes
	system time =       0.01 seconds =       0.00 minutes
	total time  =          1 seconds =       0.02 minutes
Total time:
	user time   =       0.15 seconds =       0.00 minutes
	system time =       0.01 seconds =       0.00 minutes
	total time  =          1 seconds =       0.02 minutes


Properties will be evaluated at   0.000000,   0.000000,   0.000000 Bohr

Properties computed using the SCF density matrix

  Nuclear Dipole Moment: (a.u.)
     X:     0.0000      Y:     0.0000      Z:     0.0000

  Electronic Dipole Moment: (a.u.)
     X:     0.0000      Y:     0.0000      Z:     0.0000

  Dipole Moment: (a.u.)
     X:     0.0000      Y:     0.0000      Z:     0.0000     Total:     0.0000

  Dipole Moment: (Debye)
     X:     0.0000      Y:     0.0000      Z:     0.0000     Total:     0.0000

 MINTS: Wrapper to libmints.
   by Justin Turney

   Calculation information:
      Number of atoms:                   2
      Number of AO shells:              10
      Number of SO shells:               5
      Number of primitives:             28
      Number of atomic orbitals:        18
      Number of basis functions:        18

      Number of irreps:                  8
      Integral cutoff                 0.00e+00
      Number of functions per irrep: [   5    0    2    2    0    5    2    2 ]

 OEINTS: Overlap, kinetic, potential, dipole, and quadrupole integrals
         stored in file 35.

      Computing two-electron integrals...done
      Computed 2376 non-zero two-electron integrals.
        Stored in file 33.


         ---------------------------------------------------------
                                 D E T C I  

                             C. David Sherrill
                             Matt L. Leininger
                               18 June 1999
         ---------------------------------------------------------


DETCI PARAMETERS: 
   EX LEVEL      =        4      H0 BLOCKSIZE =     1000
   VAL EX LEVEL  =        0      H0 GUESS SIZE=     1000
   H0COUPLINGSIZE=        0      H0 COUPLING  =       no
   MAXITER       =       24      NUM PRINT    =       20
   NUM ROOTS     =        1      ICORE        =        1
   PRINT         =        1      FCI          =      yes
   R CONV        = 1.00e-04      MIXED        =      yes
   E CONV        = 1.00e-14      MIXED4       =      yes
   R4S           =       no      REPL OTF     =       no
   DIAG METHOD   =      SEM
   PRECONDITIONER= DAVIDSON      UPDATE       = DAVIDSON
   S             =   0.0000      Ms0          =      yes
   MAX NUM VECS  =       25
   RESTART       =       no
   GUESS VECTOR  =  H0BLOCK      OPENTYPE     =     NONE
   REF SYM       =     auto
   COLLAPSE SIZE =        1      HD AVG       = EVANGELISTI
   LSE           =       no      LSE ITER     =        0
   HD OTF        =      yes      NO DFILE     =       no
   MPN           =       no      MPN SCHMIDT  =       no
   ZAPTN         =       no      MPN WIGNER   =       no
   PERT Z        =   1.0000      FOLLOW ROOT  =        0
   NUM THREADS   =        1
   FILTER GUESS  =       no      SF RESTRICT  =       no
   OPDM          =       no      TRANS DENSITY=       no

   FILES         =  50 51 52 53

   EX ALLOW      =  1  1  1  1 
   STATE AVERAGE =  1(1.00) 

ORBITALS:
   NMO          =       18
   FROZEN CORE  =        2      RESTR CORE   =        0
   FROZEN VIRT  =        0      RESTR VIRT   =        0
   DROPPED CORE =        2      DROPPED VIRT =        0
   EXPLICIT CORE=        0      ORBS IN CI   =       16
   NUM ALP      =        4      NUM BET      =        4
   NUM ALP EXPL =        2      NUM BET EXPL =        2
   IOPEN        =       no

   DOCC            =   2   0   0   0   0   2   0   0 
   SOCC            =   0   0   0   0   0   0   0   0 

   FROZEN DOCC     =   1   0   0   0   0   1   0   0 
   RESTRICTED DOCC =   0   0   0   0   0   0   0   0 
   ACTIVE          =   4   0   2   2   0   4   2   2 
   RESTRICTED UOCC =   0   0   0   0   0   0   0   0 
   FROZEN UOCC     =   0   0   0   0   0   0   0   0 
         ---------------------------------------------------------


   ==> Setting up CI strings <==

   There are 120 alpha and 120 beta strings
   The CI space requires 1984 (1.98E+03) determinants and 8 blocks


   ==> Transforming CI integrals <==
	Presorting SO-basis two-electron integrals.
	Sorting File: SO Ints (nn|nn) nbuckets = 1
	Transforming the one-electron integrals and constructing Fock matrices
	Starting first half-transformation.
	Sorting half-transformed integrals.
	First half integral transformation complete.
	Starting second half-transformation.
	Two-electron integral transformation complete.

*** H0 Block Eigenvalue = -29.22089005

Find the roots by the Simultaneous Expansion Method (Block Davidson Method)
Using 1 initial trial vectors
Iter  0  Root  1 = -29.220890047   Delta_E -2.731E+00   Delta_C  3.378E-02  
Iter  1  Root  1 = -29.221599605   Delta_E -7.096E-04   Delta_C  6.078E-03  
Iter  2  Root  1 = -29.221624236   Delta_E -2.463E-05   Delta_C  2.136E-03  
Iter  3  Root  1 = -29.221629342   Delta_E -5.106E-06   Delta_C  8.529E-04  
Iter  4  Root  1 = -29.221629988   Delta_E -6.458E-07   Delta_C  3.148E-04  
Iter  5  Root  1 = -29.221630067   Delta_E -7.965E-08   Delta_C  1.258E-04  
Iter  6  Root  1 = -29.221630090   Delta_E -2.299E-08   Delta_C  8.558E-05  
Iter  7  Root  1 = -29.221630098   Delta_E -7.741E-09   Delta_C  3.721E-05  
Iter  8  Root  1 = -29.221630099   Delta_E -1.175E-09   Delta_C  1.380E-05  
Iter  9  Root  1 = -29.221630100   Delta_E -1.521E-10   Delta_C  5.154E-06  
Iter 10  Root  1 = -29.221630100   Delta_E -2.139E-11   Delta_C  1.909E-06  
Iter 11  Root  1 = -29.221630100   Delta_E -3.210E-12   Delta_C  8.163E-07  
Iter 12  Root  1 = -29.221630100   Delta_E -5.915E-13   Delta_C  3.144E-07  
Warning: Norm of correction (root 0) is < 1.0E-13
Iter 13  Root  1 = -29.221630100   Delta_E -8.837E-14   Delta_C  1.204E-07  
Warning: Norm of correction (root 0) is < 1.0E-13
Iter 14  Root  1 = -29.221630100   Delta_E -1.643E-14   Delta_C  5.724E-08  
Warning: Norm of correction (root 0) is < 1.0E-13
Iter 15  Root  1 = -29.221630100   Delta_E -2.665E-15   Delta_C  2.841E-08 c

* ROOT 1 CI total energy = -29.2216300995409


The 20 most important determinants

    1    0.896657  (    0,    0)  2AgX  2B1uX  
    2   -0.179628  (   72,   72)  2AgX  3AgX  
    3   -0.092856  (   56,   56)  2AgX  1B2uX  
    4   -0.092856  (   40,   40)  2AgX  1B3uX  
    5   -0.083731  (   88,   88)  2AgX  1B3gX  
    6   -0.083731  (  104,  104)  2AgX  1B2gX  
    7    0.082725  (  104,  112)  2AgA  2B1uB  1B2gA  1B3uB  
    8    0.082725  (  112,  104)  2AgB  2B1uA  1B2gB  1B3uA  
    9    0.082725  (   88,   96)  2AgA  2B1uB  1B3gA  1B2uB  
   10    0.082725  (   96,   88)  2AgB  2B1uA  1B3gB  1B2uA  
   11   -0.079854  (   96,   96)  2B1uX  1B2uX  
   12   -0.079854  (  112,  112)  2B1uX  1B3uX  
   13   -0.073659  (    1,    4)  2AgB  2B1uA  3AgA  3B1uB  
   14   -0.073659  (    4,    1)  2AgA  2B1uB  3AgB  3B1uA  
   15    0.069994  (   48,   56)  2AgB  2B1uA  1B3gA  1B2uB  
   16    0.069994  (   56,   48)  2AgA  2B1uB  1B3gB  1B2uA  
   17    0.069994  (   32,   40)  2AgB  2B1uA  1B2gA  1B3uB  
   18    0.069994  (   40,   32)  2AgA  2B1uB  1B2gB  1B3uA  
   19   -0.066744  (    1,    1)  2B1uX  3AgX  
   20   -0.046866  (   48,   48)  2B1uX  1B3gX  


		 "A good bug is a dead bug" 

			 - Starship Troopers

		 "I didn't write FORTRAN.  That's the problem."

			 - Edward Valeev


*** Psi4 exiting successfully. Buy a developer a beer!
