    -----------------------------------------------------------------------
          Psi4: An Open-Source Ab Initio Electronic Structure Package
                              Psi4 1.0.0 Driver

                          Git: Rev {master} 6a9a71b dirty

    J. M. Turney, A. C. Simmonett, R. M. Parrish, E. G. Hohenstein,
    F. A. Evangelista, J. T. Fermann, B. J. Mintz, L. A. Burns, J. J. Wilke,
    M. L. Abrams, N. J. Russ, M. L. Leininger, C. L. Janssen, E. T. Seidl,
    W. D. Allen, H. F. Schaefer, R. A. King, E. F. Valeev, C. D. Sherrill,
    and T. D. Crawford, WIREs Comput. Mol. Sci. 2, 556-565 (2012)
    (doi: 10.1002/wcms.93)

                         Additional Contributions by
    A. E. DePrince, U. Bozkaya, A. Yu. Sokolov, D. G. A. Smith, R. Di Remigio,
    R. M. Richard, J. F. Gonthier, H. R. McAlexander, M. Saitow, and
    B. P. Pritchard
    -----------------------------------------------------------------------


    Psi4 started on: Tue Aug 15 00:28:07 2017

    Process ID:   7905
    PSI4DATADIR: /home/yhliu/psi4conda/share/psi4
    Memory level set to 256.000 MB

  ==> Input File <==

--------------------------------------------------------------------------
memory 24 Gb
molecule be2 {
0 1
Be   0.0    0.0 0.0
Be   4.7    0.0 0.0
units angstrom    
}

set basis 6-31g
set freeze_core true
set PRINT_BASIS True
set PUREAM False
set E_CONVERGENCE 1e-14
energy('ccsd(t)')
--------------------------------------------------------------------------
/home/yhliu/psi4conda/lib/python2.7/site-packages/v2rdm_casscf/v2rdm_casscf.so loaded.

  Memory set to  24.000 GiB by Python script.

*** tstart() called on compute-0-0.local
*** at Tue Aug 15 00:28:07 2017


         ---------------------------------------------------------
                                   SCF
            by Justin Turney, Rob Parrish, and Andy Simmonett
                              RHF Reference
                        1 Threads,  24000 MiB Core
         ---------------------------------------------------------

  ==> Geometry <==

    Molecular point group: d2h
    Full point group: D_inf_h

    Geometry (in Angstrom), charge = 0, multiplicity = 1:

       Center              X                  Y                   Z               Mass       
    ------------   -----------------  -----------------  -----------------  -----------------
          BE         -2.350000000000    -0.000000000000     0.000000000000     9.012182201000
          BE          2.350000000000     0.000000000000     0.000000000000     9.012182201000

  Running in d2h symmetry.

  Rotational constants: A = ************  B =      0.16936  C =      0.16936 [cm^-1]
  Rotational constants: A = ************  B =   5077.16775  C =   5077.16775 [MHz]
  Nuclear repulsion =    1.801454327114893

  Charge       = 0
  Multiplicity = 1
  Electrons    = 8
  Nalpha       = 4
  Nbeta        = 4

  ==> Algorithm <==

  SCF Algorithm Type is PK.
  DIIS enabled.
  MOM disabled.
  Fractional occupation disabled.
  Guess Type is SAD.
  Energy threshold   = 1.00e-14
  Density threshold  = 1.00e-08
  Integral threshold = 0.00e+00

  ==> Primary Basis <==

  Basis Set: 6-31G
    Number of shells: 10
    Number of basis function: 18
    Number of Cartesian functions: 18
    Spherical Harmonics?: false
    Max angular momentum: 1

  -AO BASIS SET INFORMATION:
    Name                   = 6-31G
    Total number of shells = 10
    Number of primitives   = 28
    Number of AO           = 18
    Number of SO           = 18
    Maximum AM             = 1
    Spherical Harmonics    = FALSE

  -Contraction Scheme:
    Atom   Type   All Primitives // Shells:
   ------ ------ --------------------------
       1    BE     10s 4p // 3s 2p 
       2    BE     10s 4p // 3s 2p 

  ==> AO Basis Functions <==

    [ 6-31G ]
    cartesian
    ****
   BE   1
    S   6 1.00
                      1264.58570000           0.00194480
                       189.93681000           0.01483510
                        43.15908900           0.07209060
                        12.09866300           0.23715420
                         3.80632320           0.46919870
                         1.27289030           0.35652020
    S   3 1.00
                         3.19646310          -0.11264870
                         0.74781330          -0.22950640
                         0.21996630           1.18691670
    P   3 1.00
                         3.19646310           0.05598020
                         0.74781330           0.26155060
                         0.21996630           0.79397230
    S   1 1.00
                         0.08230990           1.00000000
    P   1 1.00
                         0.08230990           1.00000000
    ****

  ==> Pre-Iterations <==

   -------------------------------------------------------
    Irrep   Nso     Nmo     Nalpha   Nbeta   Ndocc  Nsocc
   -------------------------------------------------------
     Ag         5       5       0       0       0       0
     B1g        2       2       0       0       0       0
     B2g        2       2       0       0       0       0
     B3g        0       0       0       0       0       0
     Au         0       0       0       0       0       0
     B1u        2       2       0       0       0       0
     B2u        2       2       0       0       0       0
     B3u        5       5       0       0       0       0
   -------------------------------------------------------
    Total      18      18       4       4       4       0
   -------------------------------------------------------

  ==> Integral Setup <==

  Using in-core PK algorithm.
   Calculation information:
      Number of atoms:                   2
      Number of AO shells:              10
      Number of primitives:             28
      Number of atomic orbitals:        18
      Number of basis functions:        18

      Integral cutoff                 1.00e-12
      Number of threads:                 1

  Performing in-core PK
  Using 29412 doubles for integral storage.
  We computed 1475 shell quartets total.
  Whereas there are 1540 unique shell quartets.
  ==> DiskJK: Disk-Based J/K Matrices <==

    J tasked:                  Yes
    K tasked:                  Yes
    wK tasked:                  No
    Memory (MB):             17166
    Schwarz Cutoff:          1E-12

    OpenMP threads:              1
  Minimum eigenvalue in the overlap matrix is 1.0940818570E-01.
  Using Symmetric Orthogonalization.
  SCF Guess: Superposition of Atomic Densities via on-the-fly atomic UHF.

  ==> Iterations <==

                        Total Energy        Delta E     RMS |[F,P]|

   @RHF iter   0:   -29.13403028676302   -2.91340e+01   1.80885e-03 
   @RHF iter   1:   -29.13377524135309    2.55045e-04   4.00701e-04 
   @RHF iter   2:   -29.13380717180884   -3.19305e-05   1.22284e-04 DIIS
   @RHF iter   3:   -29.13381074431870   -3.57251e-06   8.49451e-06 DIIS
   @RHF iter   4:   -29.13381075646867   -1.21500e-08   9.54825e-07 DIIS
   @RHF iter   5:   -29.13381075657579   -1.07114e-10   5.71468e-08 DIIS
   @RHF iter   6:   -29.13381075657619   -3.97904e-13   6.09859e-09 DIIS
   @RHF iter   7:   -29.13381075657618    3.55271e-15   2.91989e-10 DIIS

  ==> Post-Iterations <==

    Orbital Energies (a.u.)
    -----------------------

    Doubly Occupied:                                                      

       1B3u   -4.707496     1Ag    -4.707492     2Ag    -0.308150  
       2B3u   -0.294696  

    Virtual:                                                              

       3Ag     0.060504     1B1u    0.076242     1B2u    0.076242  
       1B2g    0.088508     1B1g    0.088508     3B3u    0.112711  
       4Ag     0.411220     4B3u    0.446764     2B1u    0.453517  
       2B2u    0.453517     5Ag     0.463199     2B2g    0.477542  
       2B1g    0.477542     5B3u    0.561926  

    Final Occupation by Irrep:
             Ag   B1g   B2g   B3g    Au   B1u   B2u   B3u 
    DOCC [     2,    0,    0,    0,    0,    0,    0,    2 ]

  Energy converged.

  @RHF Final Energy:   -29.13381075657618

   => Energetics <=

    Nuclear Repulsion Energy =              1.8014543271148931
    One-Electron Energy =                 -41.8348619346477335
    Two-Electron Energy =                  10.8995968509566552
    DFT Exchange-Correlation Energy =       0.0000000000000000
    Empirical Dispersion Energy =           0.0000000000000000
    PCM Polarization Energy =               0.0000000000000000
    EFP Energy =                            0.0000000000000000
    Total Energy =                        -29.1338107565761817


  Saving occupied orbitals to File 180.

*** tstop() called on compute-0-0.local at Tue Aug 15 00:28:08 2017
Module time:
	user time   =       0.16 seconds =       0.00 minutes
	system time =       0.01 seconds =       0.00 minutes
	total time  =          1 seconds =       0.02 minutes
Total time:
	user time   =       0.16 seconds =       0.00 minutes
	system time =       0.01 seconds =       0.00 minutes
	total time  =          1 seconds =       0.02 minutes


Properties will be evaluated at   0.000000,   0.000000,   0.000000 Bohr

Properties computed using the SCF density matrix

  Nuclear Dipole Moment: (a.u.)
     X:     0.0000      Y:     0.0000      Z:     0.0000

  Electronic Dipole Moment: (a.u.)
     X:     0.0000      Y:     0.0000      Z:     0.0000

  Dipole Moment: (a.u.)
     X:     0.0000      Y:     0.0000      Z:     0.0000     Total:     0.0000

  Dipole Moment: (Debye)
     X:     0.0000      Y:     0.0000      Z:     0.0000     Total:     0.0000

 MINTS: Wrapper to libmints.
   by Justin Turney

   Calculation information:
      Number of atoms:                   2
      Number of AO shells:              10
      Number of SO shells:               5
      Number of primitives:             28
      Number of atomic orbitals:        18
      Number of basis functions:        18

      Number of irreps:                  8
      Integral cutoff                 0.00e+00
      Number of functions per irrep: [   5    2    2    0    0    2    2    5 ]

 OEINTS: Overlap, kinetic, potential, dipole, and quadrupole integrals
         stored in file 35.

      Computing two-electron integrals...done
      Computed 2376 non-zero two-electron integrals.
        Stored in file 33.


*** tstart() called on compute-0-0.local
*** at Tue Aug 15 00:28:08 2017


	Wfn Parameters:
	--------------------
	Wavefunction         = CCSD_T
	Number of irreps     = 8
	Number of MOs        = 18
	Number of active MOs = 16
	AO-Basis             = NONE
	Semicanonical        = false
	Reference            = RHF
	Print Level          = 1

	IRREP	# MOs	# FZDC	# DOCC	# SOCC	# VIRT	# FZVR
	-----	-----	------	------	------	------	------
	 Ag	   5	    1	    1	    0	    3	    0
	 B1g	   2	    0	    0	    0	    2	    0
	 B2g	   2	    0	    0	    0	    2	    0
	 B3g	   0	    0	    0	    0	    0	    0
	 Au	   0	    0	    0	    0	    0	    0
	 B1u	   2	    0	    0	    0	    2	    0
	 B2u	   2	    0	    0	    0	    2	    0
	 B3u	   5	    1	    1	    0	    3	    0
	Transforming integrals...
	IWL integrals will be deleted.
	(OO|OO)...
	Presorting SO-basis two-electron integrals.
	Sorting File: SO Ints (nn|nn) nbuckets = 1
	Transforming the one-electron integrals and constructing Fock matrices
	Starting first half-transformation.
	Sorting half-transformed integrals.
	First half integral transformation complete.
	Starting second half-transformation.
	Two-electron integral transformation complete.
	(OO|OV)...
	Starting second half-transformation.
	Two-electron integral transformation complete.
	(OO|VV)...
	Starting second half-transformation.
	Two-electron integral transformation complete.
	(OV|OO)...
	Starting first half-transformation.
	Sorting half-transformed integrals.
	First half integral transformation complete.
	Starting second half-transformation.
	Two-electron integral transformation complete.
	(OV|OV)...
	Starting second half-transformation.
	Two-electron integral transformation complete.
	(OV|VV)...
	Starting second half-transformation.
	Two-electron integral transformation complete.
	(VV|OO)...
	Starting first half-transformation.
	Sorting half-transformed integrals.
	First half integral transformation complete.
	Starting second half-transformation.
	Two-electron integral transformation complete.
	(VV|OV)...
	Starting second half-transformation.
	Two-electron integral transformation complete.
	(VV|VV)...
	Starting second half-transformation.
	Two-electron integral transformation complete.
	Frozen core energy     =    -28.57049803438960

	Size of irrep 0 of <ab|cd> integrals:      0.001 (MW) /      0.009 (MB)
	Size of irrep 1 of <ab|cd> integrals:      0.001 (MW) /      0.005 (MB)
	Size of irrep 2 of <ab|cd> integrals:      0.001 (MW) /      0.005 (MB)
	Size of irrep 3 of <ab|cd> integrals:      0.000 (MW) /      0.002 (MB)
	Size of irrep 4 of <ab|cd> integrals:      0.000 (MW) /      0.002 (MB)
	Size of irrep 5 of <ab|cd> integrals:      0.001 (MW) /      0.005 (MB)
	Size of irrep 6 of <ab|cd> integrals:      0.001 (MW) /      0.005 (MB)
	Size of irrep 7 of <ab|cd> integrals:      0.001 (MW) /      0.009 (MB)
	Total:                                     0.005 (MW) /      0.041 (MB)

	Size of irrep 0 of <ia|bc> integrals:      0.000 (MW) /      0.002 (MB)
	Size of irrep 1 of <ia|bc> integrals:      0.000 (MW) /      0.001 (MB)
	Size of irrep 2 of <ia|bc> integrals:      0.000 (MW) /      0.001 (MB)
	Size of irrep 3 of <ia|bc> integrals:      0.000 (MW) /      0.000 (MB)
	Size of irrep 4 of <ia|bc> integrals:      0.000 (MW) /      0.000 (MB)
	Size of irrep 5 of <ia|bc> integrals:      0.000 (MW) /      0.001 (MB)
	Size of irrep 6 of <ia|bc> integrals:      0.000 (MW) /      0.001 (MB)
	Size of irrep 7 of <ia|bc> integrals:      0.000 (MW) /      0.002 (MB)
	Total:                                     0.001 (MW) /      0.006 (MB)

	Size of irrep 0 of tijab amplitudes:       0.000 (MW) /      0.001 (MB)
	Size of irrep 1 of tijab amplitudes:       0.000 (MW) /      0.000 (MB)
	Size of irrep 2 of tijab amplitudes:       0.000 (MW) /      0.000 (MB)
	Size of irrep 3 of tijab amplitudes:       0.000 (MW) /      0.000 (MB)
	Size of irrep 4 of tijab amplitudes:       0.000 (MW) /      0.000 (MB)
	Size of irrep 5 of tijab amplitudes:       0.000 (MW) /      0.000 (MB)
	Size of irrep 6 of tijab amplitudes:       0.000 (MW) /      0.000 (MB)
	Size of irrep 7 of tijab amplitudes:       0.000 (MW) /      0.001 (MB)
	Total:                                     0.000 (MW) /      0.001 (MB)

	Nuclear Rep. energy          =      1.80145432711489
	SCF energy                   =    -29.13381075657618
	One-electron energy          =     -3.52384176485572
	Two-electron energy          =      1.15907471555424
	Reference energy             =    -29.13381075657618

*** tstop() called on compute-0-0.local at Tue Aug 15 00:29:00 2017
Module time:
	user time   =       0.02 seconds =       0.00 minutes
	system time =       0.04 seconds =       0.00 minutes
	total time  =         52 seconds =       0.87 minutes
Total time:
	user time   =       0.22 seconds =       0.00 minutes
	system time =       0.05 seconds =       0.00 minutes
	total time  =         53 seconds =       0.88 minutes

*** tstart() called on compute-0-0.local
*** at Tue Aug 15 00:29:00 2017

            **************************
            *                        *
            *        CCENERGY        *
            *                        *
            **************************

    Nuclear Rep. energy (wfn)     =    1.801454327114893
    SCF energy          (wfn)     =  -29.133810756576182
    Reference energy    (file100) =  -29.133810756576182

    Input parameters:
    -----------------
    Wave function   =     CCSD_T
    Reference wfn   =     RHF
    Brueckner       =     No
    Memory (Mbytes) =     24000.0
    Maxiter         =     50
    R_Convergence   =     1.0e-07
    E_Convergence   =     1.0e-14
    Restart         =     Yes
    DIIS            =     Yes
    AO Basis        =     NONE
    ABCD            =     NEW
    Cache Level     =     2
    Cache Type      =     LOW
    Print Level     =     1
    Num. of threads =     1
    # Amps to Print =     10
    Print MP2 Amps? =     No
    Analyze T2 Amps =     No
    Print Pair Ener =     No
    Local CC        =     No
    SCS-MP2         =     False
    SCSN-MP2        =     False
    SCS-CCSD        =     False

MP2 correlation energy -0.0468785071242431
                Solving CC Amplitude Equations
                ------------------------------
  Iter             Energy              RMS        T1Diag      D1Diag    New D1Diag    D2Diag
  ----     ---------------------    ---------   ----------  ----------  ----------   --------
     0        -0.046878507124243    0.000e+00    0.000000    0.000000    0.000000    0.164102
     1        -0.069450064141381    1.188e-01    0.004495    0.006389    0.006389    0.247510
     2        -0.092060042823323    6.237e-02    0.011686    0.017005    0.017005    0.335678
     3        -0.091460276788700    4.617e-03    0.012423    0.018292    0.018292    0.334692
     4        -0.091900297549015    1.398e-03    0.012598    0.018580    0.018580    0.336427
     5        -0.091978461407305    1.974e-04    0.012633    0.018652    0.018652    0.336726
     6        -0.091920752893715    1.712e-04    0.012614    0.018626    0.018626    0.336498
     7        -0.091916408390481    1.171e-05    0.012612    0.018625    0.018625    0.336480
     8        -0.091918192105917    6.870e-06    0.012613    0.018626    0.018626    0.336487
     9        -0.091918441660232    1.815e-06    0.012613    0.018626    0.018626    0.336488
    10        -0.091918499813208    1.023e-06    0.012613    0.018626    0.018626    0.336488
    11        -0.091918493866580    4.439e-07    0.012613    0.018626    0.018626    0.336488
    12        -0.091918498886635    1.641e-07    0.012613    0.018626    0.018626    0.336488
    13        -0.091918498975657    5.243e-08    0.012613    0.018626    0.018626    0.336488
    14        -0.091918498419162    2.121e-08    0.012613    0.018626    0.018626    0.336488
    15        -0.091918497920448    9.013e-09    0.012613    0.018626    0.018626    0.336488
    16        -0.091918497930125    2.054e-09    0.012613    0.018626    0.018626    0.336488
    17        -0.091918497985139    7.910e-10    0.012613    0.018626    0.018626    0.336488
    18        -0.091918498026596    2.144e-10    0.012613    0.018626    0.018626    0.336488
    19        -0.091918498036617    6.016e-11    0.012613    0.018626    0.018626    0.336488
    20        -0.091918498039404    3.304e-11    0.012613    0.018626    0.018626    0.336488
    21        -0.091918498040022    1.993e-11    0.012613    0.018626    0.018626    0.336488
    22        -0.091918498040076    8.165e-12    0.012613    0.018626    0.018626    0.336488
    23        -0.091918498040028    2.895e-12    0.012613    0.018626    0.018626    0.336488
    24        -0.091918498040001    1.398e-12    0.012613    0.018626    0.018626    0.336488
    25        -0.091918498039960    7.329e-13    0.012613    0.018626    0.018626    0.336488
    26        -0.091918498039949    2.334e-13    0.012613    0.018626    0.018626    0.336488
    27        -0.091918498039945    9.215e-14    0.012613    0.018626    0.018626    0.336488
    28        -0.091918498039947    3.179e-14    0.012613    0.018626    0.018626    0.336488

    Iterations converged.


    Largest TIA Amplitudes:
              0   1         0.0161865632
              1  12        -0.0130931367
              1  11         0.0082455226
              1  13        -0.0070712889
              0   0         0.0070386703
              0   2        -0.0059472372

    Largest TIjAb Amplitudes:
      0   0   0   0        -0.0939479839
      1   1   3   3        -0.0905941607
      1   1   5   5        -0.0905941607
      0   1   0  11         0.0903973327
      1   0  11   0         0.0903973327
      1   1   0   0        -0.0888394593
      0   1   7   5        -0.0882003971
      0   1   9   3        -0.0882003971
      1   0   3   9        -0.0882003971
      1   0   5   7        -0.0882003971

    SCF energy       (wfn)                    =  -29.133810756576182
    Reference energy (file100)                =  -29.133810756576182

    Opposite-spin MP2 correlation energy      =   -0.046657209480691
    Same-spin MP2 correlation energy          =   -0.000221297643553
    MP2 correlation energy                    =   -0.046878507124243
      * MP2 total energy                      =  -29.180689263700426

    Opposite-spin CCSD correlation energy     =   -0.091685107022648
    Same-spin CCSD correlation energy         =   -0.000233391011458
    CCSD correlation energy                   =   -0.091918498039947
      * CCSD total energy                     =  -29.225729254616130


*** tstop() called on compute-0-0.local at Tue Aug 15 00:30:28 2017
Module time:
	user time   =       0.33 seconds =       0.01 minutes
	system time =       0.42 seconds =       0.01 minutes
	total time  =         88 seconds =       1.47 minutes
Total time:
	user time   =       0.55 seconds =       0.01 minutes
	system time =       0.47 seconds =       0.01 minutes
	total time  =        141 seconds =       2.35 minutes

*** tstart() called on compute-0-0.local
*** at Tue Aug 15 00:30:28 2017

            **************************
            *                        *
            *        CCTRIPLES       *
            *                        *
            **************************


    Wave function   =    CCSD_T
    Reference wfn   =      RHF

    Nuclear Rep. energy (wfn)                =    1.801454327114893
    SCF energy          (wfn)                =  -29.133810756576182
    Reference energy    (file100)            =  -29.133810756576182
    CCSD energy         (file100)            =   -0.091918498039947
    Total CCSD energy   (file100)            =  -29.225729254616130

    Number of ijk index combinations:                4
    Memory available in words        :      3000000000
    ~Words needed per explicit thread:             108
    Number of threads for explicit ijk threading:    1

    (T) energy                                =   -0.000043395271558
      * CCSD(T) total energy                  =  -29.225772649887688


*** tstop() called on compute-0-0.local at Tue Aug 15 00:30:28 2017
Module time:
	user time   =       0.02 seconds =       0.00 minutes
	system time =       0.01 seconds =       0.00 minutes
	total time  =          0 seconds =       0.00 minutes
Total time:
	user time   =       0.57 seconds =       0.01 minutes
	system time =       0.48 seconds =       0.01 minutes
	total time  =        141 seconds =       2.35 minutes

*** Psi4 exiting successfully. Buy a developer a beer!
