    -----------------------------------------------------------------------
          Psi4: An Open-Source Ab Initio Electronic Structure Package
                              Psi4 1.0.0 Driver

                          Git: Rev {master} 6a9a71b dirty

    J. M. Turney, A. C. Simmonett, R. M. Parrish, E. G. Hohenstein,
    F. A. Evangelista, J. T. Fermann, B. J. Mintz, L. A. Burns, J. J. Wilke,
    M. L. Abrams, N. J. Russ, M. L. Leininger, C. L. Janssen, E. T. Seidl,
    W. D. Allen, H. F. Schaefer, R. A. King, E. F. Valeev, C. D. Sherrill,
    and T. D. Crawford, WIREs Comput. Mol. Sci. 2, 556-565 (2012)
    (doi: 10.1002/wcms.93)

                         Additional Contributions by
    A. E. DePrince, U. Bozkaya, A. Yu. Sokolov, D. G. A. Smith, R. Di Remigio,
    R. M. Richard, J. F. Gonthier, H. R. McAlexander, M. Saitow, and
    B. P. Pritchard
    -----------------------------------------------------------------------


    Psi4 started on: Tue Aug 15 00:25:23 2017

    Process ID:   7687
    PSI4DATADIR: /home/yhliu/psi4conda/share/psi4
    Memory level set to 256.000 MB

  ==> Input File <==

--------------------------------------------------------------------------
memory 24 Gb
molecule be2 {
0 1
Be   0.0    0.0 0.0
Be   4.4    0.0 0.0
units angstrom    
}

set basis 6-31g
set freeze_core true
set PRINT_BASIS True
set PUREAM False
set E_CONVERGENCE 1e-14
energy('ccsd(t)')
--------------------------------------------------------------------------
/home/yhliu/psi4conda/lib/python2.7/site-packages/v2rdm_casscf/v2rdm_casscf.so loaded.

  Memory set to  24.000 GiB by Python script.

*** tstart() called on compute-0-0.local
*** at Tue Aug 15 00:25:23 2017


         ---------------------------------------------------------
                                   SCF
            by Justin Turney, Rob Parrish, and Andy Simmonett
                              RHF Reference
                        1 Threads,  24000 MiB Core
         ---------------------------------------------------------

  ==> Geometry <==

    Molecular point group: d2h
    Full point group: D_inf_h

    Geometry (in Angstrom), charge = 0, multiplicity = 1:

       Center              X                  Y                   Z               Mass       
    ------------   -----------------  -----------------  -----------------  -----------------
          BE         -2.200000000000    -0.000000000000     0.000000000000     9.012182201000
          BE          2.200000000000     0.000000000000     0.000000000000     9.012182201000

  Running in d2h symmetry.

  Rotational constants: A = ************  B =      0.19324  C =      0.19324 [cm^-1]
  Rotational constants: A = ************  B =   5793.11134  C =   5793.11134 [MHz]
  Nuclear repulsion =    1.924280758509091

  Charge       = 0
  Multiplicity = 1
  Electrons    = 8
  Nalpha       = 4
  Nbeta        = 4

  ==> Algorithm <==

  SCF Algorithm Type is PK.
  DIIS enabled.
  MOM disabled.
  Fractional occupation disabled.
  Guess Type is SAD.
  Energy threshold   = 1.00e-14
  Density threshold  = 1.00e-08
  Integral threshold = 0.00e+00

  ==> Primary Basis <==

  Basis Set: 6-31G
    Number of shells: 10
    Number of basis function: 18
    Number of Cartesian functions: 18
    Spherical Harmonics?: false
    Max angular momentum: 1

  -AO BASIS SET INFORMATION:
    Name                   = 6-31G
    Total number of shells = 10
    Number of primitives   = 28
    Number of AO           = 18
    Number of SO           = 18
    Maximum AM             = 1
    Spherical Harmonics    = FALSE

  -Contraction Scheme:
    Atom   Type   All Primitives // Shells:
   ------ ------ --------------------------
       1    BE     10s 4p // 3s 2p 
       2    BE     10s 4p // 3s 2p 

  ==> AO Basis Functions <==

    [ 6-31G ]
    cartesian
    ****
   BE   1
    S   6 1.00
                      1264.58570000           0.00194480
                       189.93681000           0.01483510
                        43.15908900           0.07209060
                        12.09866300           0.23715420
                         3.80632320           0.46919870
                         1.27289030           0.35652020
    S   3 1.00
                         3.19646310          -0.11264870
                         0.74781330          -0.22950640
                         0.21996630           1.18691670
    P   3 1.00
                         3.19646310           0.05598020
                         0.74781330           0.26155060
                         0.21996630           0.79397230
    S   1 1.00
                         0.08230990           1.00000000
    P   1 1.00
                         0.08230990           1.00000000
    ****

  ==> Pre-Iterations <==

   -------------------------------------------------------
    Irrep   Nso     Nmo     Nalpha   Nbeta   Ndocc  Nsocc
   -------------------------------------------------------
     Ag         5       5       0       0       0       0
     B1g        2       2       0       0       0       0
     B2g        2       2       0       0       0       0
     B3g        0       0       0       0       0       0
     Au         0       0       0       0       0       0
     B1u        2       2       0       0       0       0
     B2u        2       2       0       0       0       0
     B3u        5       5       0       0       0       0
   -------------------------------------------------------
    Total      18      18       4       4       4       0
   -------------------------------------------------------

  ==> Integral Setup <==

  Using in-core PK algorithm.
   Calculation information:
      Number of atoms:                   2
      Number of AO shells:              10
      Number of primitives:             28
      Number of atomic orbitals:        18
      Number of basis functions:        18

      Integral cutoff                 1.00e-12
      Number of threads:                 1

  Performing in-core PK
  Using 29412 doubles for integral storage.
  We computed 1482 shell quartets total.
  Whereas there are 1540 unique shell quartets.
  ==> DiskJK: Disk-Based J/K Matrices <==

    J tasked:                  Yes
    K tasked:                  Yes
    wK tasked:                  No
    Memory (MB):             17166
    Schwarz Cutoff:          1E-12

    OpenMP threads:              1
  Minimum eigenvalue in the overlap matrix is 1.0049542464E-01.
  Using Symmetric Orthogonalization.
  SCF Guess: Superposition of Atomic Densities via on-the-fly atomic UHF.

  ==> Iterations <==

                        Total Energy        Delta E     RMS |[F,P]|

   @RHF iter   0:   -29.13473200199596   -2.91347e+01   2.25728e-03 
   @RHF iter   1:   -29.13373325383368    9.98748e-04   4.77766e-04 
   @RHF iter   2:   -29.13377975226563   -4.64984e-05   1.54553e-04 DIIS
   @RHF iter   3:   -29.13378562964010   -5.87737e-06   1.11273e-05 DIIS
   @RHF iter   4:   -29.13378565054420   -2.09041e-08   1.33808e-06 DIIS
   @RHF iter   5:   -29.13378565074564   -2.01446e-10   1.02554e-07 DIIS
   @RHF iter   6:   -29.13378565074686   -1.21503e-12   6.75234e-09 DIIS
   @RHF iter   7:   -29.13378565074686    0.00000e+00   5.72516e-10 DIIS

  ==> Post-Iterations <==

    Orbital Energies (a.u.)
    -----------------------

    Doubly Occupied:                                                      

       1B3u   -4.707626     1Ag    -4.707623     2Ag    -0.311205  
       2B3u   -0.291768  

    Virtual:                                                              

       3Ag     0.058310     1B1u    0.074097     1B2u    0.074097  
       1B2g    0.090775     1B1g    0.090775     3B3u    0.120610  
       4Ag     0.417152     4B3u    0.447113     2B1u    0.452019  
       2B2u    0.452019     5Ag     0.471316     2B2g    0.480161  
       2B1g    0.480161     5B3u    0.573027  

    Final Occupation by Irrep:
             Ag   B1g   B2g   B3g    Au   B1u   B2u   B3u 
    DOCC [     2,    0,    0,    0,    0,    0,    0,    2 ]

  Energy converged.

  @RHF Final Energy:   -29.13378565074686

   => Energetics <=

    Nuclear Repulsion Energy =              1.9242807585090913
    One-Electron Energy =                 -42.0796867969877582
    Two-Electron Energy =                  11.0216203877318115
    DFT Exchange-Correlation Energy =       0.0000000000000000
    Empirical Dispersion Energy =           0.0000000000000000
    PCM Polarization Energy =               0.0000000000000000
    EFP Energy =                            0.0000000000000000
    Total Energy =                        -29.1337856507468551


  Saving occupied orbitals to File 180.

*** tstop() called on compute-0-0.local at Tue Aug 15 00:25:24 2017
Module time:
	user time   =       0.17 seconds =       0.00 minutes
	system time =       0.01 seconds =       0.00 minutes
	total time  =          1 seconds =       0.02 minutes
Total time:
	user time   =       0.17 seconds =       0.00 minutes
	system time =       0.01 seconds =       0.00 minutes
	total time  =          1 seconds =       0.02 minutes


Properties will be evaluated at   0.000000,   0.000000,   0.000000 Bohr

Properties computed using the SCF density matrix

  Nuclear Dipole Moment: (a.u.)
     X:     0.0000      Y:     0.0000      Z:     0.0000

  Electronic Dipole Moment: (a.u.)
     X:     0.0000      Y:     0.0000      Z:     0.0000

  Dipole Moment: (a.u.)
     X:     0.0000      Y:     0.0000      Z:     0.0000     Total:     0.0000

  Dipole Moment: (Debye)
     X:     0.0000      Y:     0.0000      Z:     0.0000     Total:     0.0000

 MINTS: Wrapper to libmints.
   by Justin Turney

   Calculation information:
      Number of atoms:                   2
      Number of AO shells:              10
      Number of SO shells:               5
      Number of primitives:             28
      Number of atomic orbitals:        18
      Number of basis functions:        18

      Number of irreps:                  8
      Integral cutoff                 0.00e+00
      Number of functions per irrep: [   5    2    2    0    0    2    2    5 ]

 OEINTS: Overlap, kinetic, potential, dipole, and quadrupole integrals
         stored in file 35.

      Computing two-electron integrals...done
      Computed 2376 non-zero two-electron integrals.
        Stored in file 33.


*** tstart() called on compute-0-0.local
*** at Tue Aug 15 00:25:24 2017


	Wfn Parameters:
	--------------------
	Wavefunction         = CCSD_T
	Number of irreps     = 8
	Number of MOs        = 18
	Number of active MOs = 16
	AO-Basis             = NONE
	Semicanonical        = false
	Reference            = RHF
	Print Level          = 1

	IRREP	# MOs	# FZDC	# DOCC	# SOCC	# VIRT	# FZVR
	-----	-----	------	------	------	------	------
	 Ag	   5	    1	    1	    0	    3	    0
	 B1g	   2	    0	    0	    0	    2	    0
	 B2g	   2	    0	    0	    0	    2	    0
	 B3g	   0	    0	    0	    0	    0	    0
	 Au	   0	    0	    0	    0	    0	    0
	 B1u	   2	    0	    0	    0	    2	    0
	 B2u	   2	    0	    0	    0	    2	    0
	 B3u	   5	    1	    1	    0	    3	    0
	Transforming integrals...
	IWL integrals will be deleted.
	(OO|OO)...
	Presorting SO-basis two-electron integrals.
	Sorting File: SO Ints (nn|nn) nbuckets = 1
	Transforming the one-electron integrals and constructing Fock matrices
	Starting first half-transformation.
	Sorting half-transformed integrals.
	First half integral transformation complete.
	Starting second half-transformation.
	Two-electron integral transformation complete.
	(OO|OV)...
	Starting second half-transformation.
	Two-electron integral transformation complete.
	(OO|VV)...
	Starting second half-transformation.
	Two-electron integral transformation complete.
	(OV|OO)...
	Starting first half-transformation.
	Sorting half-transformed integrals.
	First half integral transformation complete.
	Starting second half-transformation.
	Two-electron integral transformation complete.
	(OV|OV)...
	Starting second half-transformation.
	Two-electron integral transformation complete.
	(OV|VV)...
	Starting second half-transformation.
	Two-electron integral transformation complete.
	(VV|OO)...
	Starting first half-transformation.
	Sorting half-transformed integrals.
	First half integral transformation complete.
	Starting second half-transformation.
	Two-electron integral transformation complete.
	(VV|OV)...
	Starting second half-transformation.
	Two-electron integral transformation complete.
	(VV|VV)...
	Starting second half-transformation.
	Two-electron integral transformation complete.
	Frozen core energy     =    -28.66261961035480

	Size of irrep 0 of <ab|cd> integrals:      0.001 (MW) /      0.009 (MB)
	Size of irrep 1 of <ab|cd> integrals:      0.001 (MW) /      0.005 (MB)
	Size of irrep 2 of <ab|cd> integrals:      0.001 (MW) /      0.005 (MB)
	Size of irrep 3 of <ab|cd> integrals:      0.000 (MW) /      0.002 (MB)
	Size of irrep 4 of <ab|cd> integrals:      0.000 (MW) /      0.002 (MB)
	Size of irrep 5 of <ab|cd> integrals:      0.001 (MW) /      0.005 (MB)
	Size of irrep 6 of <ab|cd> integrals:      0.001 (MW) /      0.005 (MB)
	Size of irrep 7 of <ab|cd> integrals:      0.001 (MW) /      0.009 (MB)
	Total:                                     0.005 (MW) /      0.041 (MB)

	Size of irrep 0 of <ia|bc> integrals:      0.000 (MW) /      0.002 (MB)
	Size of irrep 1 of <ia|bc> integrals:      0.000 (MW) /      0.001 (MB)
	Size of irrep 2 of <ia|bc> integrals:      0.000 (MW) /      0.001 (MB)
	Size of irrep 3 of <ia|bc> integrals:      0.000 (MW) /      0.000 (MB)
	Size of irrep 4 of <ia|bc> integrals:      0.000 (MW) /      0.000 (MB)
	Size of irrep 5 of <ia|bc> integrals:      0.000 (MW) /      0.001 (MB)
	Size of irrep 6 of <ia|bc> integrals:      0.000 (MW) /      0.001 (MB)
	Size of irrep 7 of <ia|bc> integrals:      0.000 (MW) /      0.002 (MB)
	Total:                                     0.001 (MW) /      0.006 (MB)

	Size of irrep 0 of tijab amplitudes:       0.000 (MW) /      0.001 (MB)
	Size of irrep 1 of tijab amplitudes:       0.000 (MW) /      0.000 (MB)
	Size of irrep 2 of tijab amplitudes:       0.000 (MW) /      0.000 (MB)
	Size of irrep 3 of tijab amplitudes:       0.000 (MW) /      0.000 (MB)
	Size of irrep 4 of tijab amplitudes:       0.000 (MW) /      0.000 (MB)
	Size of irrep 5 of tijab amplitudes:       0.000 (MW) /      0.000 (MB)
	Size of irrep 6 of tijab amplitudes:       0.000 (MW) /      0.000 (MB)
	Size of irrep 7 of tijab amplitudes:       0.000 (MW) /      0.001 (MB)
	Total:                                     0.000 (MW) /      0.001 (MB)

	Nuclear Rep. energy          =      1.92428075850909
	SCF energy                   =    -29.13378565074686
	One-electron energy          =     -3.58494652377989
	Two-electron energy          =      1.18949972487857
	Reference energy             =    -29.13378565074703

*** tstop() called on compute-0-0.local at Tue Aug 15 00:25:24 2017
Module time:
	user time   =       0.02 seconds =       0.00 minutes
	system time =       0.03 seconds =       0.00 minutes
	total time  =          0 seconds =       0.00 minutes
Total time:
	user time   =       0.23 seconds =       0.00 minutes
	system time =       0.04 seconds =       0.00 minutes
	total time  =          1 seconds =       0.02 minutes

*** tstart() called on compute-0-0.local
*** at Tue Aug 15 00:25:24 2017

            **************************
            *                        *
            *        CCENERGY        *
            *                        *
            **************************

    Nuclear Rep. energy (wfn)     =    1.924280758509091
    SCF energy          (wfn)     =  -29.133785650746859
    Reference energy    (file100) =  -29.133785650747029

    Input parameters:
    -----------------
    Wave function   =     CCSD_T
    Reference wfn   =     RHF
    Brueckner       =     No
    Memory (Mbytes) =     24000.0
    Maxiter         =     50
    R_Convergence   =     1.0e-07
    E_Convergence   =     1.0e-14
    Restart         =     Yes
    DIIS            =     Yes
    AO Basis        =     NONE
    ABCD            =     NEW
    Cache Level     =     2
    Cache Type      =     LOW
    Print Level     =     1
    Num. of threads =     1
    # Amps to Print =     10
    Print MP2 Amps? =     No
    Analyze T2 Amps =     No
    Print Pair Ener =     No
    Local CC        =     No
    SCS-MP2         =     False
    SCSN-MP2        =     False
    SCS-CCSD        =     False

MP2 correlation energy -0.0470152871027666
                Solving CC Amplitude Equations
                ------------------------------
  Iter             Energy              RMS        T1Diag      D1Diag    New D1Diag    D2Diag
  ----     ---------------------    ---------   ----------  ----------  ----------   --------
     0        -0.047015287102767    0.000e+00    0.000000    0.000000    0.000000    0.164877
     1        -0.069547306429958    1.185e-01    0.004532    0.006515    0.006515    0.248474
     2        -0.091972376897698    6.215e-02    0.011915    0.017043    0.017043    0.336551
     3        -0.091422289081257    4.877e-03    0.012786    0.018555    0.018555    0.335842
     4        -0.091845959272993    1.477e-03    0.012990    0.018888    0.018888    0.337536
     5        -0.091952419628443    2.660e-04    0.013050    0.019004    0.019004    0.337944
     6        -0.091888930933696    1.926e-04    0.013029    0.018977    0.018977    0.337690
     7        -0.091882497022755    2.013e-05    0.013027    0.018975    0.018975    0.337663
     8        -0.091885797648275    1.184e-05    0.013028    0.018977    0.018977    0.337676
     9        -0.091885427807525    4.582e-06    0.013027    0.018976    0.018976    0.337675
    10        -0.091885709775435    2.343e-06    0.013027    0.018976    0.018976    0.337677
    11        -0.091885701151075    7.192e-07    0.013027    0.018975    0.018975    0.337677
    12        -0.091885709376116    3.247e-07    0.013027    0.018975    0.018975    0.337677
    13        -0.091885706359462    9.298e-08    0.013027    0.018975    0.018975    0.337677
    14        -0.091885705151823    2.618e-08    0.013027    0.018975    0.018975    0.337677
    15        -0.091885705601785    7.027e-09    0.013027    0.018975    0.018975    0.337677
    16        -0.091885705546306    1.762e-09    0.013027    0.018975    0.018975    0.337677
    17        -0.091885705594011    7.412e-10    0.013027    0.018975    0.018975    0.337677
    18        -0.091885705604654    4.100e-10    0.013027    0.018975    0.018975    0.337677
    19        -0.091885705611297    2.437e-10    0.013027    0.018975    0.018975    0.337677
    20        -0.091885705608574    1.010e-10    0.013027    0.018975    0.018975    0.337677
    21        -0.091885705606668    2.628e-11    0.013027    0.018975    0.018975    0.337677
    22        -0.091885705606176    1.105e-11    0.013027    0.018975    0.018975    0.337677
    23        -0.091885705606081    4.481e-12    0.013027    0.018975    0.018975    0.337677
    24        -0.091885705606037    1.593e-12    0.013027    0.018975    0.018975    0.337677
    25        -0.091885705606010    5.585e-13    0.013027    0.018975    0.018975    0.337677
    26        -0.091885705606003    1.498e-13    0.013027    0.018975    0.018975    0.337677
    27        -0.091885705606005    4.798e-14    0.013027    0.018975    0.018975    0.337677

    Iterations converged.


    Largest TIA Amplitudes:
              0   1         0.0167372926
              1  12        -0.0124088864
              1  11         0.0105303467
              0   0         0.0082956464
              1  13        -0.0073403608
              0   2        -0.0033334756

    Largest TIjAb Amplitudes:
      0   0   0   0        -0.0964785895
      1   1   0   0        -0.0937629043
      1   1   3   3        -0.0916736265
      1   1   5   5        -0.0916736265
      0   1   0  11         0.0910555939
      1   0  11   0         0.0910555939
      0   1   7   5        -0.0885883817
      0   1   9   3        -0.0885883817
      1   0   3   9        -0.0885883817
      1   0   5   7        -0.0885883817

    SCF energy       (wfn)                    =  -29.133785650746859
    Reference energy (file100)                =  -29.133785650747029

    Opposite-spin MP2 correlation energy      =   -0.046691698310606
    Same-spin MP2 correlation energy          =   -0.000323588792160
    MP2 correlation energy                    =   -0.047015287102767
      * MP2 total energy                      =  -29.180800937849796

    Opposite-spin CCSD correlation energy     =   -0.091537750948173
    Same-spin CCSD correlation energy         =   -0.000347954650961
    CCSD correlation energy                   =   -0.091885705606005
      * CCSD total energy                     =  -29.225671356353036


*** tstop() called on compute-0-0.local at Tue Aug 15 00:27:49 2017
Module time:
	user time   =       0.33 seconds =       0.01 minutes
	system time =       0.39 seconds =       0.01 minutes
	total time  =        145 seconds =       2.42 minutes
Total time:
	user time   =       0.56 seconds =       0.01 minutes
	system time =       0.43 seconds =       0.01 minutes
	total time  =        146 seconds =       2.43 minutes

*** tstart() called on compute-0-0.local
*** at Tue Aug 15 00:27:49 2017

            **************************
            *                        *
            *        CCTRIPLES       *
            *                        *
            **************************


    Wave function   =    CCSD_T
    Reference wfn   =      RHF

    Nuclear Rep. energy (wfn)                =    1.924280758509091
    SCF energy          (wfn)                =  -29.133785650746859
    Reference energy    (file100)            =  -29.133785650747029
    CCSD energy         (file100)            =   -0.091885705606005
    Total CCSD energy   (file100)            =  -29.225671356353036

    Number of ijk index combinations:                4
    Memory available in words        :      3000000000
    ~Words needed per explicit thread:             108
    Number of threads for explicit ijk threading:    1

    (T) energy                                =   -0.000072517926653
      * CCSD(T) total energy                  =  -29.225743874279686


*** tstop() called on compute-0-0.local at Tue Aug 15 00:27:49 2017
Module time:
	user time   =       0.02 seconds =       0.00 minutes
	system time =       0.02 seconds =       0.00 minutes
	total time  =          0 seconds =       0.00 minutes
Total time:
	user time   =       0.58 seconds =       0.01 minutes
	system time =       0.45 seconds =       0.01 minutes
	total time  =        146 seconds =       2.43 minutes

*** Psi4 exiting successfully. Buy a developer a beer!
