    -----------------------------------------------------------------------
          Psi4: An Open-Source Ab Initio Electronic Structure Package
                              Psi4 1.0.0 Driver

                          Git: Rev {master} 6a9a71b dirty

    J. M. Turney, A. C. Simmonett, R. M. Parrish, E. G. Hohenstein,
    F. A. Evangelista, J. T. Fermann, B. J. Mintz, L. A. Burns, J. J. Wilke,
    M. L. Abrams, N. J. Russ, M. L. Leininger, C. L. Janssen, E. T. Seidl,
    W. D. Allen, H. F. Schaefer, R. A. King, E. F. Valeev, C. D. Sherrill,
    and T. D. Crawford, WIREs Comput. Mol. Sci. 2, 556-565 (2012)
    (doi: 10.1002/wcms.93)

                         Additional Contributions by
    A. E. DePrince, U. Bozkaya, A. Yu. Sokolov, D. G. A. Smith, R. Di Remigio,
    R. M. Richard, J. F. Gonthier, H. R. McAlexander, M. Saitow, and
    B. P. Pritchard
    -----------------------------------------------------------------------


    Psi4 started on: Tue Aug 15 00:30:44 2017

    Process ID:   8075
    PSI4DATADIR: /home/yhliu/psi4conda/share/psi4
    Memory level set to 256.000 MB

  ==> Input File <==

--------------------------------------------------------------------------
memory 24 Gb
molecule be2 {
0 1
Be   0.0    0.0 0.0
Be   5.0    0.0 0.0
units angstrom    
}

set basis 6-31g
set freeze_core true
set PRINT_BASIS True
set PUREAM False
set E_CONVERGENCE 1e-14
energy('ccsd(t)')
--------------------------------------------------------------------------
/home/yhliu/psi4conda/lib/python2.7/site-packages/v2rdm_casscf/v2rdm_casscf.so loaded.

  Memory set to  24.000 GiB by Python script.

*** tstart() called on compute-0-0.local
*** at Tue Aug 15 00:30:44 2017


         ---------------------------------------------------------
                                   SCF
            by Justin Turney, Rob Parrish, and Andy Simmonett
                              RHF Reference
                        1 Threads,  24000 MiB Core
         ---------------------------------------------------------

  ==> Geometry <==

    Molecular point group: d2h
    Full point group: D_inf_h

    Geometry (in Angstrom), charge = 0, multiplicity = 1:

       Center              X                  Y                   Z               Mass       
    ------------   -----------------  -----------------  -----------------  -----------------
          BE         -2.500000000000    -0.000000000000     0.000000000000     9.012182201000
          BE          2.500000000000     0.000000000000     0.000000000000     9.012182201000

  Running in d2h symmetry.

  Rotational constants: A = ************  B =      0.14964  C =      0.14964 [cm^-1]
  Rotational constants: A = ************  B =   4486.18542  C =   4486.18542 [MHz]
  Nuclear repulsion =    1.693367067488001

  Charge       = 0
  Multiplicity = 1
  Electrons    = 8
  Nalpha       = 4
  Nbeta        = 4

  ==> Algorithm <==

  SCF Algorithm Type is PK.
  DIIS enabled.
  MOM disabled.
  Fractional occupation disabled.
  Guess Type is SAD.
  Energy threshold   = 1.00e-14
  Density threshold  = 1.00e-08
  Integral threshold = 0.00e+00

  ==> Primary Basis <==

  Basis Set: 6-31G
    Number of shells: 10
    Number of basis function: 18
    Number of Cartesian functions: 18
    Spherical Harmonics?: false
    Max angular momentum: 1

  -AO BASIS SET INFORMATION:
    Name                   = 6-31G
    Total number of shells = 10
    Number of primitives   = 28
    Number of AO           = 18
    Number of SO           = 18
    Maximum AM             = 1
    Spherical Harmonics    = FALSE

  -Contraction Scheme:
    Atom   Type   All Primitives // Shells:
   ------ ------ --------------------------
       1    BE     10s 4p // 3s 2p 
       2    BE     10s 4p // 3s 2p 

  ==> AO Basis Functions <==

    [ 6-31G ]
    cartesian
    ****
   BE   1
    S   6 1.00
                      1264.58570000           0.00194480
                       189.93681000           0.01483510
                        43.15908900           0.07209060
                        12.09866300           0.23715420
                         3.80632320           0.46919870
                         1.27289030           0.35652020
    S   3 1.00
                         3.19646310          -0.11264870
                         0.74781330          -0.22950640
                         0.21996630           1.18691670
    P   3 1.00
                         3.19646310           0.05598020
                         0.74781330           0.26155060
                         0.21996630           0.79397230
    S   1 1.00
                         0.08230990           1.00000000
    P   1 1.00
                         0.08230990           1.00000000
    ****

  ==> Pre-Iterations <==

   -------------------------------------------------------
    Irrep   Nso     Nmo     Nalpha   Nbeta   Ndocc  Nsocc
   -------------------------------------------------------
     Ag         5       5       0       0       0       0
     B1g        2       2       0       0       0       0
     B2g        2       2       0       0       0       0
     B3g        0       0       0       0       0       0
     Au         0       0       0       0       0       0
     B1u        2       2       0       0       0       0
     B2u        2       2       0       0       0       0
     B3u        5       5       0       0       0       0
   -------------------------------------------------------
    Total      18      18       4       4       4       0
   -------------------------------------------------------

  ==> Integral Setup <==

  Using in-core PK algorithm.
   Calculation information:
      Number of atoms:                   2
      Number of AO shells:              10
      Number of primitives:             28
      Number of atomic orbitals:        18
      Number of basis functions:        18

      Integral cutoff                 1.00e-12
      Number of threads:                 1

  Performing in-core PK
  Using 29412 doubles for integral storage.
  We computed 1473 shell quartets total.
  Whereas there are 1540 unique shell quartets.
  ==> DiskJK: Disk-Based J/K Matrices <==

    J tasked:                  Yes
    K tasked:                  Yes
    wK tasked:                  No
    Memory (MB):             17166
    Schwarz Cutoff:          1E-12

    OpenMP threads:              1
  Minimum eigenvalue in the overlap matrix is 1.1610340074E-01.
  Using Symmetric Orthogonalization.
  SCF Guess: Superposition of Atomic Densities via on-the-fly atomic UHF.

  ==> Iterations <==

                        Total Energy        Delta E     RMS |[F,P]|

   @RHF iter   0:   -29.13372833268705   -2.91337e+01   1.48649e-03 
   @RHF iter   1:   -29.13374990834252   -2.15757e-05   3.28407e-04 
   @RHF iter   2:   -29.13377078704331   -2.08787e-05   9.41717e-05 DIIS
   @RHF iter   3:   -29.13377284078473   -2.05374e-06   6.37003e-06 DIIS
   @RHF iter   4:   -29.13377284763606   -6.85134e-09   7.16826e-07 DIIS
   @RHF iter   5:   -29.13377284769901   -6.29434e-11   3.47293e-08 DIIS
   @RHF iter   6:   -29.13377284769913   -1.24345e-13   4.93366e-09 DIIS
   @RHF iter   7:   -29.13377284769915   -1.77636e-14   1.77071e-10 DIIS
   @RHF iter   8:   -29.13377284769914    1.06581e-14   2.34129e-11 DIIS
   @RHF iter   9:   -29.13377284769914   -3.55271e-15   1.73020e-12 DIIS

  ==> Post-Iterations <==

    Orbital Energies (a.u.)
    -----------------------

    Doubly Occupied:                                                      

       1B3u   -4.707357     1Ag    -4.707354     2Ag    -0.305972  
       2B3u   -0.296802  

    Virtual:                                                              

       3Ag     0.063094     1B2u    0.077954     1B1u    0.077954  
       1B1g    0.086766     1B2g    0.086766     3B3u    0.106214  
       4Ag     0.408505     4B3u    0.446299     2B2u    0.455541  
       2B1u    0.455541     5Ag     0.458426     2B1g    0.474843  
       2B2g    0.474843     5B3u    0.546894  

    Final Occupation by Irrep:
             Ag   B1g   B2g   B3g    Au   B1u   B2u   B3u 
    DOCC [     2,    0,    0,    0,    0,    0,    0,    2 ]

  Energy converged.

  @RHF Final Energy:   -29.13377284769914

   => Energetics <=

    Nuclear Repulsion Energy =              1.6933670674880010
    One-Electron Energy =                 -41.6193107364386989
    Two-Electron Energy =                  10.7921708212515544
    DFT Exchange-Correlation Energy =       0.0000000000000000
    Empirical Dispersion Energy =           0.0000000000000000
    PCM Polarization Energy =               0.0000000000000000
    EFP Energy =                            0.0000000000000000
    Total Energy =                        -29.1337728476991487


  Saving occupied orbitals to File 180.

*** tstop() called on compute-0-0.local at Tue Aug 15 00:30:45 2017
Module time:
	user time   =       0.18 seconds =       0.00 minutes
	system time =       0.00 seconds =       0.00 minutes
	total time  =          1 seconds =       0.02 minutes
Total time:
	user time   =       0.18 seconds =       0.00 minutes
	system time =       0.00 seconds =       0.00 minutes
	total time  =          1 seconds =       0.02 minutes


Properties will be evaluated at   0.000000,   0.000000,   0.000000 Bohr

Properties computed using the SCF density matrix

  Nuclear Dipole Moment: (a.u.)
     X:     0.0000      Y:     0.0000      Z:     0.0000

  Electronic Dipole Moment: (a.u.)
     X:     0.0000      Y:     0.0000      Z:     0.0000

  Dipole Moment: (a.u.)
     X:     0.0000      Y:     0.0000      Z:     0.0000     Total:     0.0000

  Dipole Moment: (Debye)
     X:     0.0000      Y:     0.0000      Z:     0.0000     Total:     0.0000

 MINTS: Wrapper to libmints.
   by Justin Turney

   Calculation information:
      Number of atoms:                   2
      Number of AO shells:              10
      Number of SO shells:               5
      Number of primitives:             28
      Number of atomic orbitals:        18
      Number of basis functions:        18

      Number of irreps:                  8
      Integral cutoff                 0.00e+00
      Number of functions per irrep: [   5    2    2    0    0    2    2    5 ]

 OEINTS: Overlap, kinetic, potential, dipole, and quadrupole integrals
         stored in file 35.

      Computing two-electron integrals...done
      Computed 2376 non-zero two-electron integrals.
        Stored in file 33.


*** tstart() called on compute-0-0.local
*** at Tue Aug 15 00:30:45 2017


	Wfn Parameters:
	--------------------
	Wavefunction         = CCSD_T
	Number of irreps     = 8
	Number of MOs        = 18
	Number of active MOs = 16
	AO-Basis             = NONE
	Semicanonical        = false
	Reference            = RHF
	Print Level          = 1

	IRREP	# MOs	# FZDC	# DOCC	# SOCC	# VIRT	# FZVR
	-----	-----	------	------	------	------	------
	 Ag	   5	    1	    1	    0	    3	    0
	 B1g	   2	    0	    0	    0	    2	    0
	 B2g	   2	    0	    0	    0	    2	    0
	 B3g	   0	    0	    0	    0	    0	    0
	 Au	   0	    0	    0	    0	    0	    0
	 B1u	   2	    0	    0	    0	    2	    0
	 B2u	   2	    0	    0	    0	    2	    0
	 B3u	   5	    1	    1	    0	    3	    0
	Transforming integrals...
	IWL integrals will be deleted.
	(OO|OO)...
	Presorting SO-basis two-electron integrals.
	Sorting File: SO Ints (nn|nn) nbuckets = 1
	Transforming the one-electron integrals and constructing Fock matrices
	Starting first half-transformation.
	Sorting half-transformed integrals.
	First half integral transformation complete.
	Starting second half-transformation.
	Two-electron integral transformation complete.
	(OO|OV)...
	Starting second half-transformation.
	Two-electron integral transformation complete.
	(OO|VV)...
	Starting second half-transformation.
	Two-electron integral transformation complete.
	(OV|OO)...
	Starting first half-transformation.
	Sorting half-transformed integrals.
	First half integral transformation complete.
	Starting second half-transformation.
	Two-electron integral transformation complete.
	(OV|OV)...
	Starting second half-transformation.
	Two-electron integral transformation complete.
	(OV|VV)...
	Starting second half-transformation.
	Two-electron integral transformation complete.
	(VV|OO)...
	Starting first half-transformation.
	Sorting half-transformed integrals.
	First half integral transformation complete.
	Starting second half-transformation.
	Two-electron integral transformation complete.
	(VV|OV)...
	Starting second half-transformation.
	Two-electron integral transformation complete.
	(VV|VV)...
	Starting second half-transformation.
	Two-electron integral transformation complete.
	Frozen core energy     =    -28.48943132267390

	Size of irrep 0 of <ab|cd> integrals:      0.001 (MW) /      0.009 (MB)
	Size of irrep 1 of <ab|cd> integrals:      0.001 (MW) /      0.005 (MB)
	Size of irrep 2 of <ab|cd> integrals:      0.001 (MW) /      0.005 (MB)
	Size of irrep 3 of <ab|cd> integrals:      0.000 (MW) /      0.002 (MB)
	Size of irrep 4 of <ab|cd> integrals:      0.000 (MW) /      0.002 (MB)
	Size of irrep 5 of <ab|cd> integrals:      0.001 (MW) /      0.005 (MB)
	Size of irrep 6 of <ab|cd> integrals:      0.001 (MW) /      0.005 (MB)
	Size of irrep 7 of <ab|cd> integrals:      0.001 (MW) /      0.009 (MB)
	Total:                                     0.005 (MW) /      0.041 (MB)

	Size of irrep 0 of <ia|bc> integrals:      0.000 (MW) /      0.002 (MB)
	Size of irrep 1 of <ia|bc> integrals:      0.000 (MW) /      0.001 (MB)
	Size of irrep 2 of <ia|bc> integrals:      0.000 (MW) /      0.001 (MB)
	Size of irrep 3 of <ia|bc> integrals:      0.000 (MW) /      0.000 (MB)
	Size of irrep 4 of <ia|bc> integrals:      0.000 (MW) /      0.000 (MB)
	Size of irrep 5 of <ia|bc> integrals:      0.000 (MW) /      0.001 (MB)
	Size of irrep 6 of <ia|bc> integrals:      0.000 (MW) /      0.001 (MB)
	Size of irrep 7 of <ia|bc> integrals:      0.000 (MW) /      0.002 (MB)
	Total:                                     0.001 (MW) /      0.006 (MB)

	Size of irrep 0 of tijab amplitudes:       0.000 (MW) /      0.001 (MB)
	Size of irrep 1 of tijab amplitudes:       0.000 (MW) /      0.000 (MB)
	Size of irrep 2 of tijab amplitudes:       0.000 (MW) /      0.000 (MB)
	Size of irrep 3 of tijab amplitudes:       0.000 (MW) /      0.000 (MB)
	Size of irrep 4 of tijab amplitudes:       0.000 (MW) /      0.000 (MB)
	Size of irrep 5 of tijab amplitudes:       0.000 (MW) /      0.000 (MB)
	Size of irrep 6 of tijab amplitudes:       0.000 (MW) /      0.000 (MB)
	Size of irrep 7 of tijab amplitudes:       0.000 (MW) /      0.001 (MB)
	Total:                                     0.000 (MW) /      0.001 (MB)

	Nuclear Rep. energy          =      1.69336706748800
	SCF energy                   =    -29.13377284769914
	One-electron energy          =     -3.46986921021273
	Two-electron energy          =      1.13216061769947
	Reference energy             =    -29.13377284769916

*** tstop() called on compute-0-0.local at Tue Aug 15 00:30:45 2017
Module time:
	user time   =       0.01 seconds =       0.00 minutes
	system time =       0.04 seconds =       0.00 minutes
	total time  =          0 seconds =       0.00 minutes
Total time:
	user time   =       0.24 seconds =       0.00 minutes
	system time =       0.04 seconds =       0.00 minutes
	total time  =          1 seconds =       0.02 minutes

*** tstart() called on compute-0-0.local
*** at Tue Aug 15 00:30:45 2017

            **************************
            *                        *
            *        CCENERGY        *
            *                        *
            **************************

    Nuclear Rep. energy (wfn)     =    1.693367067488001
    SCF energy          (wfn)     =  -29.133772847699142
    Reference energy    (file100) =  -29.133772847699156

    Input parameters:
    -----------------
    Wave function   =     CCSD_T
    Reference wfn   =     RHF
    Brueckner       =     No
    Memory (Mbytes) =     24000.0
    Maxiter         =     50
    R_Convergence   =     1.0e-07
    E_Convergence   =     1.0e-14
    Restart         =     Yes
    DIIS            =     Yes
    AO Basis        =     NONE
    ABCD            =     NEW
    Cache Level     =     2
    Cache Type      =     LOW
    Print Level     =     1
    Num. of threads =     1
    # Amps to Print =     10
    Print MP2 Amps? =     No
    Analyze T2 Amps =     No
    Print Pair Ener =     No
    Local CC        =     No
    SCS-MP2         =     False
    SCSN-MP2        =     False
    SCS-CCSD        =     False

MP2 correlation energy -0.0467798828678569
                Solving CC Amplitude Equations
                ------------------------------
  Iter             Energy              RMS        T1Diag      D1Diag    New D1Diag    D2Diag
  ----     ---------------------    ---------   ----------  ----------  ----------   --------
     0        -0.046779882867857    0.000e+00    0.000000    0.000000    0.000000    0.163513
     1        -0.069377179876525    1.190e-01    0.004466    0.006417    0.006417    0.246773
     2        -0.092120240549853    6.252e-02    0.011513    0.016852    0.016852    0.335033
     3        -0.091485251161775    4.432e-03    0.012148    0.017947    0.017947    0.333866
     4        -0.091942513663630    1.345e-03    0.012304    0.018201    0.018201    0.335657
     5        -0.091988742448005    1.485e-04    0.012319    0.018236    0.018236    0.335834
     6        -0.091939953480166    1.431e-04    0.012303    0.018214    0.018214    0.335643
     7        -0.091937103613054    7.964e-06    0.012301    0.018212    0.018212    0.335632
     8        -0.091938343588745    5.254e-06    0.012301    0.018212    0.018212    0.335637
     9        -0.091938713074617    1.351e-06    0.012301    0.018212    0.018212    0.335639
    10        -0.091938732862085    4.656e-07    0.012301    0.018212    0.018212    0.335639
    11        -0.091938728892375    2.690e-07    0.012301    0.018212    0.018212    0.335639
    12        -0.091938731480111    1.020e-07    0.012301    0.018212    0.018212    0.335639
    13        -0.091938732786380    2.957e-08    0.012301    0.018212    0.018212    0.335639
    14        -0.091938732571612    7.394e-09    0.012301    0.018212    0.018212    0.335639
    15        -0.091938732383845    3.240e-09    0.012301    0.018212    0.018212    0.335639
    16        -0.091938732358178    9.538e-10    0.012301    0.018212    0.018212    0.335639
    17        -0.091938732356119    3.936e-10    0.012301    0.018212    0.018212    0.335639
    18        -0.091938732368290    1.243e-10    0.012301    0.018212    0.018212    0.335639
    19        -0.091938732372296    4.540e-11    0.012301    0.018212    0.018212    0.335639
    20        -0.091938732372757    2.011e-11    0.012301    0.018212    0.018212    0.335639
    21        -0.091938732372406    1.310e-11    0.012301    0.018212    0.018212    0.335639
    22        -0.091938732372319    6.638e-12    0.012301    0.018212    0.018212    0.335639
    23        -0.091938732372473    2.531e-12    0.012301    0.018212    0.018212    0.335639
    24        -0.091938732372534    9.486e-13    0.012301    0.018212    0.018212    0.335639
    25        -0.091938732372552    4.484e-13    0.012301    0.018212    0.018212    0.335639
    26        -0.091938732372546    2.064e-13    0.012301    0.018212    0.018212    0.335639
    27        -0.091938732372543    1.092e-13    0.012301    0.018212    0.018212    0.335639

    Iterations converged.


    Largest TIA Amplitudes:
              0   1         0.0154883490
              1  12        -0.0137106130
              0   2        -0.0076751959
              1  13        -0.0067923920
              1  11         0.0062843335
              0   0         0.0057354866

    Largest TIjAb Amplitudes:
      0   0   0   0        -0.0915804380
      0   1   0  11         0.0897106553
      1   0  11   0         0.0897106553
      1   1   3   3        -0.0896718241
      1   1   5   5        -0.0896718241
      1   1  11  11        -0.0880611854
      0   1   7   5        -0.0878902214
      0   1   9   3        -0.0878902214
      1   0   3   9        -0.0878902214
      1   0   5   7        -0.0878902214

    SCF energy       (wfn)                    =  -29.133772847699142
    Reference energy (file100)                =  -29.133772847699156

    Opposite-spin MP2 correlation energy      =   -0.046627680457103
    Same-spin MP2 correlation energy          =   -0.000152202410754
    MP2 correlation energy                    =   -0.046779882867857
      * MP2 total energy                      =  -29.180552730567012

    Opposite-spin CCSD correlation energy     =   -0.091780086346737
    Same-spin CCSD correlation energy         =   -0.000158646025773
    CCSD correlation energy                   =   -0.091938732372543
      * CCSD total energy                     =  -29.225711580071700


*** tstop() called on compute-0-0.local at Tue Aug 15 00:31:32 2017
Module time:
	user time   =       0.36 seconds =       0.01 minutes
	system time =       0.42 seconds =       0.01 minutes
	total time  =         47 seconds =       0.78 minutes
Total time:
	user time   =       0.60 seconds =       0.01 minutes
	system time =       0.46 seconds =       0.01 minutes
	total time  =         48 seconds =       0.80 minutes

*** tstart() called on compute-0-0.local
*** at Tue Aug 15 00:31:32 2017

            **************************
            *                        *
            *        CCTRIPLES       *
            *                        *
            **************************


    Wave function   =    CCSD_T
    Reference wfn   =      RHF

    Nuclear Rep. energy (wfn)                =    1.693367067488001
    SCF energy          (wfn)                =  -29.133772847699142
    Reference energy    (file100)            =  -29.133772847699156
    CCSD energy         (file100)            =   -0.091938732372543
    Total CCSD energy   (file100)            =  -29.225711580071700

    Number of ijk index combinations:                4
    Memory available in words        :      3000000000
    ~Words needed per explicit thread:             108
    Number of threads for explicit ijk threading:    1

    (T) energy                                =   -0.000025994603685
      * CCSD(T) total energy                  =  -29.225737574675382


*** tstop() called on compute-0-0.local at Tue Aug 15 00:31:32 2017
Module time:
	user time   =       0.02 seconds =       0.00 minutes
	system time =       0.01 seconds =       0.00 minutes
	total time  =          0 seconds =       0.00 minutes
Total time:
	user time   =       0.62 seconds =       0.01 minutes
	system time =       0.47 seconds =       0.01 minutes
	total time  =         48 seconds =       0.80 minutes

*** Psi4 exiting successfully. Buy a developer a beer!
