    -----------------------------------------------------------------------
          Psi4: An Open-Source Ab Initio Electronic Structure Package
                              Psi4 1.0.0 Driver

                          Git: Rev {master} 6a9a71b dirty

    J. M. Turney, A. C. Simmonett, R. M. Parrish, E. G. Hohenstein,
    F. A. Evangelista, J. T. Fermann, B. J. Mintz, L. A. Burns, J. J. Wilke,
    M. L. Abrams, N. J. Russ, M. L. Leininger, C. L. Janssen, E. T. Seidl,
    W. D. Allen, H. F. Schaefer, R. A. King, E. F. Valeev, C. D. Sherrill,
    and T. D. Crawford, WIREs Comput. Mol. Sci. 2, 556-565 (2012)
    (doi: 10.1002/wcms.93)

                         Additional Contributions by
    A. E. DePrince, U. Bozkaya, A. Yu. Sokolov, D. G. A. Smith, R. Di Remigio,
    R. M. Richard, J. F. Gonthier, H. R. McAlexander, M. Saitow, and
    B. P. Pritchard
    -----------------------------------------------------------------------


    Psi4 started on: Tue Aug 15 00:30:28 2017

    Process ID:   8044
    PSI4DATADIR: /home/yhliu/psi4conda/share/psi4
    Memory level set to 256.000 MB

  ==> Input File <==

--------------------------------------------------------------------------
memory 24 Gb
molecule be2 {
0 1
Be   0.0    0.0 0.0
Be   4.8    0.0 0.0
units angstrom    
}

set basis 6-31g
set freeze_core true
set PRINT_BASIS True
set PUREAM False
set E_CONVERGENCE 1e-14
energy('ccsd(t)')
--------------------------------------------------------------------------
/home/yhliu/psi4conda/lib/python2.7/site-packages/v2rdm_casscf/v2rdm_casscf.so loaded.

  Memory set to  24.000 GiB by Python script.

*** tstart() called on compute-0-0.local
*** at Tue Aug 15 00:30:28 2017


         ---------------------------------------------------------
                                   SCF
            by Justin Turney, Rob Parrish, and Andy Simmonett
                              RHF Reference
                        1 Threads,  24000 MiB Core
         ---------------------------------------------------------

  ==> Geometry <==

    Molecular point group: d2h
    Full point group: D_inf_h

    Geometry (in Angstrom), charge = 0, multiplicity = 1:

       Center              X                  Y                   Z               Mass       
    ------------   -----------------  -----------------  -----------------  -----------------
          BE         -2.400000000000    -0.000000000000     0.000000000000     9.012182201000
          BE          2.400000000000     0.000000000000     0.000000000000     9.012182201000

  Running in d2h symmetry.

  Rotational constants: A = ************  B =      0.16237  C =      0.16237 [cm^-1]
  Rotational constants: A = ************  B =   4867.82272  C =   4867.82272 [MHz]
  Nuclear repulsion =    1.763924028633334

  Charge       = 0
  Multiplicity = 1
  Electrons    = 8
  Nalpha       = 4
  Nbeta        = 4

  ==> Algorithm <==

  SCF Algorithm Type is PK.
  DIIS enabled.
  MOM disabled.
  Fractional occupation disabled.
  Guess Type is SAD.
  Energy threshold   = 1.00e-14
  Density threshold  = 1.00e-08
  Integral threshold = 0.00e+00

  ==> Primary Basis <==

  Basis Set: 6-31G
    Number of shells: 10
    Number of basis function: 18
    Number of Cartesian functions: 18
    Spherical Harmonics?: false
    Max angular momentum: 1

  -AO BASIS SET INFORMATION:
    Name                   = 6-31G
    Total number of shells = 10
    Number of primitives   = 28
    Number of AO           = 18
    Number of SO           = 18
    Maximum AM             = 1
    Spherical Harmonics    = FALSE

  -Contraction Scheme:
    Atom   Type   All Primitives // Shells:
   ------ ------ --------------------------
       1    BE     10s 4p // 3s 2p 
       2    BE     10s 4p // 3s 2p 

  ==> AO Basis Functions <==

    [ 6-31G ]
    cartesian
    ****
   BE   1
    S   6 1.00
                      1264.58570000           0.00194480
                       189.93681000           0.01483510
                        43.15908900           0.07209060
                        12.09866300           0.23715420
                         3.80632320           0.46919870
                         1.27289030           0.35652020
    S   3 1.00
                         3.19646310          -0.11264870
                         0.74781330          -0.22950640
                         0.21996630           1.18691670
    P   3 1.00
                         3.19646310           0.05598020
                         0.74781330           0.26155060
                         0.21996630           0.79397230
    S   1 1.00
                         0.08230990           1.00000000
    P   1 1.00
                         0.08230990           1.00000000
    ****

  ==> Pre-Iterations <==

   -------------------------------------------------------
    Irrep   Nso     Nmo     Nalpha   Nbeta   Ndocc  Nsocc
   -------------------------------------------------------
     Ag         5       5       0       0       0       0
     B1g        2       2       0       0       0       0
     B2g        2       2       0       0       0       0
     B3g        0       0       0       0       0       0
     Au         0       0       0       0       0       0
     B1u        2       2       0       0       0       0
     B2u        2       2       0       0       0       0
     B3u        5       5       0       0       0       0
   -------------------------------------------------------
    Total      18      18       4       4       4       0
   -------------------------------------------------------

  ==> Integral Setup <==

  Using in-core PK algorithm.
   Calculation information:
      Number of atoms:                   2
      Number of AO shells:              10
      Number of primitives:             28
      Number of atomic orbitals:        18
      Number of basis functions:        18

      Integral cutoff                 1.00e-12
      Number of threads:                 1

  Performing in-core PK
  Using 29412 doubles for integral storage.
  We computed 1475 shell quartets total.
  Whereas there are 1540 unique shell quartets.
  ==> DiskJK: Disk-Based J/K Matrices <==

    J tasked:                  Yes
    K tasked:                  Yes
    wK tasked:                  No
    Memory (MB):             17166
    Schwarz Cutoff:          1E-12

    OpenMP threads:              1
  Minimum eigenvalue in the overlap matrix is 1.1188790418E-01.
  Using Symmetric Orthogonalization.
  SCF Guess: Superposition of Atomic Densities via on-the-fly atomic UHF.

  ==> Iterations <==

                        Total Energy        Delta E     RMS |[F,P]|

   @RHF iter   0:   -29.13389958093206   -2.91339e+01   1.69294e-03 
   @RHF iter   1:   -29.13377187665775    1.27704e-04   3.76234e-04 
   @RHF iter   2:   -29.13379978014948   -2.79035e-05   1.12504e-04 DIIS
   @RHF iter   3:   -29.13380277324432   -2.99309e-06   7.74601e-06 DIIS
   @RHF iter   4:   -29.13380278335599   -1.01117e-08   8.67520e-07 DIIS
   @RHF iter   5:   -29.13380278344581   -8.98233e-11   4.79968e-08 DIIS
   @RHF iter   6:   -29.13380278344609   -2.77112e-13   5.76547e-09 DIIS
   @RHF iter   7:   -29.13380278344607    1.77636e-14   2.38287e-10 DIIS
   @RHF iter   8:   -29.13380278344608   -1.42109e-14   2.60394e-11 DIIS
   @RHF iter   9:   -29.13380278344607    1.06581e-14   2.23333e-12 DIIS
   @RHF iter  10:   -29.13380278344609   -1.42109e-14   2.74485e-13 DIIS
   @RHF iter  11:   -29.13380278344607    1.42109e-14   2.17628e-14 DIIS
   @RHF iter  12:   -29.13380278344608   -7.10543e-15   6.74610e-15 DIIS

  ==> Post-Iterations <==

    Orbital Energies (a.u.)
    -----------------------

    Doubly Occupied:                                                      

       1B3u   -4.707450     1Ag    -4.707447     2Ag    -0.307340  
       2B3u   -0.295478  

    Virtual:                                                              

       3Ag     0.061321     1B1u    0.076858     1B2u    0.076858  
       1B2g    0.087874     1B1g    0.087874     3B3u    0.110404  
       4Ag     0.409889     4B3u    0.446621     2B1u    0.454155  
       2B2u    0.454155     5Ag     0.461320     2B2g    0.476634  
       2B1g    0.476634     5B3u    0.557216  

    Final Occupation by Irrep:
             Ag   B1g   B2g   B3g    Au   B1u   B2u   B3u 
    DOCC [     2,    0,    0,    0,    0,    0,    0,    2 ]

  Energy converged.

  @RHF Final Energy:   -29.13380278344608

   => Energetics <=

    Nuclear Repulsion Energy =              1.7639240286333338
    One-Electron Energy =                 -41.7600232359055994
    Two-Electron Energy =                  10.8622964238261872
    DFT Exchange-Correlation Energy =       0.0000000000000000
    Empirical Dispersion Energy =           0.0000000000000000
    PCM Polarization Energy =               0.0000000000000000
    EFP Energy =                            0.0000000000000000
    Total Energy =                        -29.1338027834460789


  Saving occupied orbitals to File 180.

*** tstop() called on compute-0-0.local at Tue Aug 15 00:30:29 2017
Module time:
	user time   =       0.19 seconds =       0.00 minutes
	system time =       0.01 seconds =       0.00 minutes
	total time  =          1 seconds =       0.02 minutes
Total time:
	user time   =       0.19 seconds =       0.00 minutes
	system time =       0.01 seconds =       0.00 minutes
	total time  =          1 seconds =       0.02 minutes


Properties will be evaluated at   0.000000,   0.000000,   0.000000 Bohr

Properties computed using the SCF density matrix

  Nuclear Dipole Moment: (a.u.)
     X:     0.0000      Y:     0.0000      Z:     0.0000

  Electronic Dipole Moment: (a.u.)
     X:     0.0000      Y:     0.0000      Z:     0.0000

  Dipole Moment: (a.u.)
     X:     0.0000      Y:     0.0000      Z:     0.0000     Total:     0.0000

  Dipole Moment: (Debye)
     X:     0.0000      Y:     0.0000      Z:     0.0000     Total:     0.0000

 MINTS: Wrapper to libmints.
   by Justin Turney

   Calculation information:
      Number of atoms:                   2
      Number of AO shells:              10
      Number of SO shells:               5
      Number of primitives:             28
      Number of atomic orbitals:        18
      Number of basis functions:        18

      Number of irreps:                  8
      Integral cutoff                 0.00e+00
      Number of functions per irrep: [   5    2    2    0    0    2    2    5 ]

 OEINTS: Overlap, kinetic, potential, dipole, and quadrupole integrals
         stored in file 35.

      Computing two-electron integrals...done
      Computed 2376 non-zero two-electron integrals.
        Stored in file 33.


*** tstart() called on compute-0-0.local
*** at Tue Aug 15 00:30:29 2017


	Wfn Parameters:
	--------------------
	Wavefunction         = CCSD_T
	Number of irreps     = 8
	Number of MOs        = 18
	Number of active MOs = 16
	AO-Basis             = NONE
	Semicanonical        = false
	Reference            = RHF
	Print Level          = 1

	IRREP	# MOs	# FZDC	# DOCC	# SOCC	# VIRT	# FZVR
	-----	-----	------	------	------	------	------
	 Ag	   5	    1	    1	    0	    3	    0
	 B1g	   2	    0	    0	    0	    2	    0
	 B2g	   2	    0	    0	    0	    2	    0
	 B3g	   0	    0	    0	    0	    0	    0
	 Au	   0	    0	    0	    0	    0	    0
	 B1u	   2	    0	    0	    0	    2	    0
	 B2u	   2	    0	    0	    0	    2	    0
	 B3u	   5	    1	    1	    0	    3	    0
	Transforming integrals...
	IWL integrals will be deleted.
	(OO|OO)...
	Presorting SO-basis two-electron integrals.
	Sorting File: SO Ints (nn|nn) nbuckets = 1
	Transforming the one-electron integrals and constructing Fock matrices
	Starting first half-transformation.
	Sorting half-transformed integrals.
	First half integral transformation complete.
	Starting second half-transformation.
	Two-electron integral transformation complete.
	(OO|OV)...
	Starting second half-transformation.
	Two-electron integral transformation complete.
	(OO|VV)...
	Starting second half-transformation.
	Two-electron integral transformation complete.
	(OV|OO)...
	Starting first half-transformation.
	Sorting half-transformed integrals.
	First half integral transformation complete.
	Starting second half-transformation.
	Two-electron integral transformation complete.
	(OV|OV)...
	Starting second half-transformation.
	Two-electron integral transformation complete.
	(OV|VV)...
	Starting second half-transformation.
	Two-electron integral transformation complete.
	(VV|OO)...
	Starting first half-transformation.
	Sorting half-transformed integrals.
	First half integral transformation complete.
	Starting second half-transformation.
	Two-electron integral transformation complete.
	(VV|OV)...
	Starting second half-transformation.
	Two-electron integral transformation complete.
	(VV|VV)...
	Starting second half-transformation.
	Two-electron integral transformation complete.
	Frozen core energy     =    -28.54234983664082

	Size of irrep 0 of <ab|cd> integrals:      0.001 (MW) /      0.009 (MB)
	Size of irrep 1 of <ab|cd> integrals:      0.001 (MW) /      0.005 (MB)
	Size of irrep 2 of <ab|cd> integrals:      0.001 (MW) /      0.005 (MB)
	Size of irrep 3 of <ab|cd> integrals:      0.000 (MW) /      0.002 (MB)
	Size of irrep 4 of <ab|cd> integrals:      0.000 (MW) /      0.002 (MB)
	Size of irrep 5 of <ab|cd> integrals:      0.001 (MW) /      0.005 (MB)
	Size of irrep 6 of <ab|cd> integrals:      0.001 (MW) /      0.005 (MB)
	Size of irrep 7 of <ab|cd> integrals:      0.001 (MW) /      0.009 (MB)
	Total:                                     0.005 (MW) /      0.041 (MB)

	Size of irrep 0 of <ia|bc> integrals:      0.000 (MW) /      0.002 (MB)
	Size of irrep 1 of <ia|bc> integrals:      0.000 (MW) /      0.001 (MB)
	Size of irrep 2 of <ia|bc> integrals:      0.000 (MW) /      0.001 (MB)
	Size of irrep 3 of <ia|bc> integrals:      0.000 (MW) /      0.000 (MB)
	Size of irrep 4 of <ia|bc> integrals:      0.000 (MW) /      0.000 (MB)
	Size of irrep 5 of <ia|bc> integrals:      0.000 (MW) /      0.001 (MB)
	Size of irrep 6 of <ia|bc> integrals:      0.000 (MW) /      0.001 (MB)
	Size of irrep 7 of <ia|bc> integrals:      0.000 (MW) /      0.002 (MB)
	Total:                                     0.001 (MW) /      0.006 (MB)

	Size of irrep 0 of tijab amplitudes:       0.000 (MW) /      0.001 (MB)
	Size of irrep 1 of tijab amplitudes:       0.000 (MW) /      0.000 (MB)
	Size of irrep 2 of tijab amplitudes:       0.000 (MW) /      0.000 (MB)
	Size of irrep 3 of tijab amplitudes:       0.000 (MW) /      0.000 (MB)
	Size of irrep 4 of tijab amplitudes:       0.000 (MW) /      0.000 (MB)
	Size of irrep 5 of tijab amplitudes:       0.000 (MW) /      0.000 (MB)
	Size of irrep 6 of tijab amplitudes:       0.000 (MW) /      0.000 (MB)
	Size of irrep 7 of tijab amplitudes:       0.000 (MW) /      0.001 (MB)
	Total:                                     0.000 (MW) /      0.001 (MB)

	Nuclear Rep. energy          =      1.76392402863333
	SCF energy                   =    -29.13380278344608
	One-electron energy          =     -3.50511693356819
	Two-electron energy          =      1.14973995812960
	Reference energy             =    -29.13380278344607

*** tstop() called on compute-0-0.local at Tue Aug 15 00:30:29 2017
Module time:
	user time   =       0.03 seconds =       0.00 minutes
	system time =       0.03 seconds =       0.00 minutes
	total time  =          0 seconds =       0.00 minutes
Total time:
	user time   =       0.25 seconds =       0.00 minutes
	system time =       0.04 seconds =       0.00 minutes
	total time  =          1 seconds =       0.02 minutes

*** tstart() called on compute-0-0.local
*** at Tue Aug 15 00:30:29 2017

            **************************
            *                        *
            *        CCENERGY        *
            *                        *
            **************************

    Nuclear Rep. energy (wfn)     =    1.763924028633334
    SCF energy          (wfn)     =  -29.133802783446079
    Reference energy    (file100) =  -29.133802783446072

    Input parameters:
    -----------------
    Wave function   =     CCSD_T
    Reference wfn   =     RHF
    Brueckner       =     No
    Memory (Mbytes) =     24000.0
    Maxiter         =     50
    R_Convergence   =     1.0e-07
    E_Convergence   =     1.0e-14
    Restart         =     Yes
    DIIS            =     Yes
    AO Basis        =     NONE
    ABCD            =     NEW
    Cache Level     =     2
    Cache Type      =     LOW
    Print Level     =     1
    Num. of threads =     1
    # Amps to Print =     10
    Print MP2 Amps? =     No
    Analyze T2 Amps =     No
    Print Pair Ener =     No
    Local CC        =     No
    SCS-MP2         =     False
    SCSN-MP2        =     False
    SCS-CCSD        =     False

MP2 correlation energy -0.0468417954602836
                Solving CC Amplitude Equations
                ------------------------------
  Iter             Energy              RMS        T1Diag      D1Diag    New D1Diag    D2Diag
  ----     ---------------------    ---------   ----------  ----------  ----------   --------
     0        -0.046841795460284    0.000e+00    0.000000    0.000000    0.000000    0.163887
     1        -0.069423112968925    1.189e-01    0.004484    0.006404    0.006404    0.247242
     2        -0.092082457156224    6.242e-02    0.011622    0.016964    0.016964    0.335442
     3        -0.091469563070767    4.548e-03    0.012322    0.018183    0.018183    0.334387
     4        -0.091915546225230    1.378e-03    0.012489    0.018458    0.018458    0.336141
     5        -0.091983166534583    1.782e-04    0.012517    0.018517    0.018517    0.336399
     6        -0.091928002846063    1.628e-04    0.012499    0.018492    0.018492    0.336182
     7        -0.091924218829533    1.009e-05    0.012497    0.018491    0.018491    0.336167
     8        -0.091925763758552    6.144e-06    0.012498    0.018491    0.018491    0.336173
     9        -0.091926091103272    1.515e-06    0.012498    0.018491    0.018491    0.336174
    10        -0.091926121097037    7.297e-07    0.012498    0.018491    0.018491    0.336174
    11        -0.091926116003792    3.719e-07    0.012498    0.018491    0.018491    0.336174
    12        -0.091926119996587    1.308e-07    0.012498    0.018491    0.018491    0.336174
    13        -0.091926120761660    3.997e-08    0.012498    0.018491    0.018491    0.336174
    14        -0.091926120403426    1.552e-08    0.012498    0.018491    0.018491    0.336174
    15        -0.091926120015189    7.537e-09    0.012498    0.018491    0.018491    0.336174
    16        -0.091926119993031    1.743e-09    0.012498    0.018491    0.018491    0.336174
    17        -0.091926120006278    6.149e-10    0.012498    0.018491    0.018491    0.336174
    18        -0.091926120028691    1.770e-10    0.012498    0.018491    0.018491    0.336174
    19        -0.091926120035316    6.651e-11    0.012498    0.018491    0.018491    0.336174
    20        -0.091926120036636    3.822e-11    0.012498    0.018491    0.018491    0.336174
    21        -0.091926120036507    2.410e-11    0.012498    0.018491    0.018491    0.336174
    22        -0.091926120036368    8.856e-12    0.012498    0.018491    0.018491    0.336174
    23        -0.091926120036441    3.133e-12    0.012498    0.018491    0.018491    0.336174
    24        -0.091926120036469    1.474e-12    0.012498    0.018491    0.018491    0.336174
    25        -0.091926120036481    7.901e-13    0.012498    0.018491    0.018491    0.336174
    26        -0.091926120036475    3.342e-13    0.012498    0.018491    0.018491    0.336174
    27        -0.091926120036474    1.510e-13    0.012498    0.018491    0.018491    0.336174

    Iterations converged.


    Largest TIA Amplitudes:
              0   1         0.0159527377
              1  12        -0.0133054625
              1  11         0.0075532522
              1  13        -0.0069831909
              0   2        -0.0066192985
              0   0         0.0066045831

    Largest TIjAb Amplitudes:
      0   0   0   0        -0.0931136522
      1   1   3   3        -0.0902683976
      1   1   5   5        -0.0902683976
      0   1   0  11         0.0901633046
      1   0  11   0         0.0901633046
      0   1   7   5        -0.0880893480
      0   1   9   3        -0.0880893480
      1   0   3   9        -0.0880893480
      1   0   5   7        -0.0880893480
      1   1   0   0        -0.0876554638

    SCF energy       (wfn)                    =  -29.133802783446079
    Reference energy (file100)                =  -29.133802783446072

    Opposite-spin MP2 correlation energy      =   -0.046646618822654
    Same-spin MP2 correlation energy          =   -0.000195176637629
    MP2 correlation energy                    =   -0.046841795460284
      * MP2 total energy                      =  -29.180644578906357

    Opposite-spin CCSD correlation energy     =   -0.091721229694612
    Same-spin CCSD correlation energy         =   -0.000204890341863
    CCSD correlation energy                   =   -0.091926120036474
      * CCSD total energy                     =  -29.225728903482548


*** tstop() called on compute-0-0.local at Tue Aug 15 00:30:37 2017
Module time:
	user time   =       0.32 seconds =       0.01 minutes
	system time =       0.49 seconds =       0.01 minutes
	total time  =          8 seconds =       0.13 minutes
Total time:
	user time   =       0.57 seconds =       0.01 minutes
	system time =       0.53 seconds =       0.01 minutes
	total time  =          9 seconds =       0.15 minutes

*** tstart() called on compute-0-0.local
*** at Tue Aug 15 00:30:37 2017

            **************************
            *                        *
            *        CCTRIPLES       *
            *                        *
            **************************


    Wave function   =    CCSD_T
    Reference wfn   =      RHF

    Nuclear Rep. energy (wfn)                =    1.763924028633334
    SCF energy          (wfn)                =  -29.133802783446079
    Reference energy    (file100)            =  -29.133802783446072
    CCSD energy         (file100)            =   -0.091926120036474
    Total CCSD energy   (file100)            =  -29.225728903482548

    Number of ijk index combinations:                4
    Memory available in words        :      3000000000
    ~Words needed per explicit thread:             108
    Number of threads for explicit ijk threading:    1

    (T) energy                                =   -0.000036561916953
      * CCSD(T) total energy                  =  -29.225765465399501


*** tstop() called on compute-0-0.local at Tue Aug 15 00:30:37 2017
Module time:
	user time   =       0.01 seconds =       0.00 minutes
	system time =       0.02 seconds =       0.00 minutes
	total time  =          0 seconds =       0.00 minutes
Total time:
	user time   =       0.58 seconds =       0.01 minutes
	system time =       0.55 seconds =       0.01 minutes
	total time  =          9 seconds =       0.15 minutes

*** Psi4 exiting successfully. Buy a developer a beer!
