    -----------------------------------------------------------------------
          Psi4: An Open-Source Ab Initio Electronic Structure Package
                              Psi4 1.0.0 Driver

                          Git: Rev {master} 6a9a71b dirty

    J. M. Turney, A. C. Simmonett, R. M. Parrish, E. G. Hohenstein,
    F. A. Evangelista, J. T. Fermann, B. J. Mintz, L. A. Burns, J. J. Wilke,
    M. L. Abrams, N. J. Russ, M. L. Leininger, C. L. Janssen, E. T. Seidl,
    W. D. Allen, H. F. Schaefer, R. A. King, E. F. Valeev, C. D. Sherrill,
    and T. D. Crawford, WIREs Comput. Mol. Sci. 2, 556-565 (2012)
    (doi: 10.1002/wcms.93)

                         Additional Contributions by
    A. E. DePrince, U. Bozkaya, A. Yu. Sokolov, D. G. A. Smith, R. Di Remigio,
    R. M. Richard, J. F. Gonthier, H. R. McAlexander, M. Saitow, and
    B. P. Pritchard
    -----------------------------------------------------------------------


    Psi4 started on: Tue Aug 15 00:40:04 2017

    Process ID:   9168
    PSI4DATADIR: /home/yhliu/psi4conda/share/psi4
    Memory level set to 256.000 MB

  ==> Input File <==

--------------------------------------------------------------------------
memory 24 Gb
molecule be2 {
0 1
Be   0.0    0.0 0.0
Be   7.6    0.0 0.0
units angstrom    
}

set basis 6-31g
set freeze_core true
set PRINT_BASIS True
set PUREAM False
set E_CONVERGENCE 1e-14
energy('ccsd(t)')
--------------------------------------------------------------------------
/home/yhliu/psi4conda/lib/python2.7/site-packages/v2rdm_casscf/v2rdm_casscf.so loaded.

  Memory set to  24.000 GiB by Python script.

*** tstart() called on compute-0-0.local
*** at Tue Aug 15 00:40:04 2017


         ---------------------------------------------------------
                                   SCF
            by Justin Turney, Rob Parrish, and Andy Simmonett
                              RHF Reference
                        1 Threads,  24000 MiB Core
         ---------------------------------------------------------

  ==> Geometry <==

    Molecular point group: d2h
    Full point group: D_inf_h

    Geometry (in Angstrom), charge = 0, multiplicity = 1:

       Center              X                  Y                   Z               Mass       
    ------------   -----------------  -----------------  -----------------  -----------------
          BE         -3.800000000000    -0.000000000000     0.000000000000     9.012182201000
          BE          3.800000000000     0.000000000000     0.000000000000     9.012182201000

  Running in d2h symmetry.

  Rotational constants: A = ************  B =      0.06477  C =      0.06477 [cm^-1]
  Rotational constants: A = ************  B =   1941.73538  C =   1941.73538 [MHz]
  Nuclear repulsion =    1.114057281242106

  Charge       = 0
  Multiplicity = 1
  Electrons    = 8
  Nalpha       = 4
  Nbeta        = 4

  ==> Algorithm <==

  SCF Algorithm Type is PK.
  DIIS enabled.
  MOM disabled.
  Fractional occupation disabled.
  Guess Type is SAD.
  Energy threshold   = 1.00e-14
  Density threshold  = 1.00e-08
  Integral threshold = 0.00e+00

  ==> Primary Basis <==

  Basis Set: 6-31G
    Number of shells: 10
    Number of basis function: 18
    Number of Cartesian functions: 18
    Spherical Harmonics?: false
    Max angular momentum: 1

  -AO BASIS SET INFORMATION:
    Name                   = 6-31G
    Total number of shells = 10
    Number of primitives   = 28
    Number of AO           = 18
    Number of SO           = 18
    Maximum AM             = 1
    Spherical Harmonics    = FALSE

  -Contraction Scheme:
    Atom   Type   All Primitives // Shells:
   ------ ------ --------------------------
       1    BE     10s 4p // 3s 2p 
       2    BE     10s 4p // 3s 2p 

  ==> AO Basis Functions <==

    [ 6-31G ]
    cartesian
    ****
   BE   1
    S   6 1.00
                      1264.58570000           0.00194480
                       189.93681000           0.01483510
                        43.15908900           0.07209060
                        12.09866300           0.23715420
                         3.80632320           0.46919870
                         1.27289030           0.35652020
    S   3 1.00
                         3.19646310          -0.11264870
                         0.74781330          -0.22950640
                         0.21996630           1.18691670
    P   3 1.00
                         3.19646310           0.05598020
                         0.74781330           0.26155060
                         0.21996630           0.79397230
    S   1 1.00
                         0.08230990           1.00000000
    P   1 1.00
                         0.08230990           1.00000000
    ****

  ==> Pre-Iterations <==

   -------------------------------------------------------
    Irrep   Nso     Nmo     Nalpha   Nbeta   Ndocc  Nsocc
   -------------------------------------------------------
     Ag         5       5       0       0       0       0
     B1g        2       2       0       0       0       0
     B2g        2       2       0       0       0       0
     B3g        0       0       0       0       0       0
     Au         0       0       0       0       0       0
     B1u        2       2       0       0       0       0
     B2u        2       2       0       0       0       0
     B3u        5       5       0       0       0       0
   -------------------------------------------------------
    Total      18      18       4       4       4       0
   -------------------------------------------------------

  ==> Integral Setup <==

  Using in-core PK algorithm.
   Calculation information:
      Number of atoms:                   2
      Number of AO shells:              10
      Number of primitives:             28
      Number of atomic orbitals:        18
      Number of basis functions:        18

      Integral cutoff                 1.00e-12
      Number of threads:                 1

  Performing in-core PK
  Using 29412 doubles for integral storage.
  We computed 1176 shell quartets total.
  Whereas there are 1540 unique shell quartets.
  ==> DiskJK: Disk-Based J/K Matrices <==

    J tasked:                  Yes
    K tasked:                  Yes
    wK tasked:                  No
    Memory (MB):             17166
    Schwarz Cutoff:          1E-12

    OpenMP threads:              1
  Minimum eigenvalue in the overlap matrix is 1.2845045649E-01.
  Using Symmetric Orthogonalization.
  SCF Guess: Superposition of Atomic Densities via on-the-fly atomic UHF.

  ==> Iterations <==

                        Total Energy        Delta E     RMS |[F,P]|

   @RHF iter   0:   -29.13352807093032   -2.91335e+01   8.05752e-05 
   @RHF iter   1:   -29.13352889119982   -8.20269e-07   1.15051e-05 
   @RHF iter   2:   -29.13352891271101   -2.15112e-08   1.96112e-06 DIIS
   @RHF iter   3:   -29.13352891343921   -7.28193e-10   7.84640e-08 DIIS
   @RHF iter   4:   -29.13352891344026   -1.05160e-12   4.11523e-09 DIIS
   @RHF iter   5:   -29.13352891344025    7.10543e-15   4.61478e-10 DIIS

  ==> Post-Iterations <==

    Orbital Energies (a.u.)
    -----------------------

    Doubly Occupied:                                                      

       1B3u   -4.706892     1Ag    -4.706892     2Ag    -0.301366  
       2B3u   -0.301226  

    Virtual:                                                              

       3Ag     0.081317     1B2u    0.082355     1B1u    0.082355  
       1B2g    0.082515     1B1g    0.082515     3B3u    0.083545  
       4Ag     0.438968     4B3u    0.440373     5Ag     0.461988  
       2B2u    0.464713     2B1u    0.464713     2B2g    0.465148  
       2B1g    0.465148     5B3u    0.468114  

    Final Occupation by Irrep:
             Ag   B1g   B2g   B3g    Au   B1u   B2u   B3u 
    DOCC [     2,    0,    0,    0,    0,    0,    0,    2 ]

  Energy converged.

  @RHF Final Energy:   -29.13352891344025

   => Energetics <=

    Nuclear Repulsion Energy =              1.1140572812421059
    One-Electron Energy =                 -40.4624225847473653
    Two-Electron Energy =                  10.2148363900650097
    DFT Exchange-Correlation Energy =       0.0000000000000000
    Empirical Dispersion Energy =           0.0000000000000000
    PCM Polarization Energy =               0.0000000000000000
    EFP Energy =                            0.0000000000000000
    Total Energy =                        -29.1335289134402515


  Saving occupied orbitals to File 180.

*** tstop() called on compute-0-0.local at Tue Aug 15 00:40:04 2017
Module time:
	user time   =       0.19 seconds =       0.00 minutes
	system time =       0.00 seconds =       0.00 minutes
	total time  =          0 seconds =       0.00 minutes
Total time:
	user time   =       0.19 seconds =       0.00 minutes
	system time =       0.00 seconds =       0.00 minutes
	total time  =          0 seconds =       0.00 minutes


Properties will be evaluated at   0.000000,   0.000000,   0.000000 Bohr

Properties computed using the SCF density matrix

  Nuclear Dipole Moment: (a.u.)
     X:     0.0000      Y:     0.0000      Z:     0.0000

  Electronic Dipole Moment: (a.u.)
     X:     0.0000      Y:     0.0000      Z:     0.0000

  Dipole Moment: (a.u.)
     X:     0.0000      Y:     0.0000      Z:     0.0000     Total:     0.0000

  Dipole Moment: (Debye)
     X:     0.0000      Y:     0.0000      Z:     0.0000     Total:     0.0000

 MINTS: Wrapper to libmints.
   by Justin Turney

   Calculation information:
      Number of atoms:                   2
      Number of AO shells:              10
      Number of SO shells:               5
      Number of primitives:             28
      Number of atomic orbitals:        18
      Number of basis functions:        18

      Number of irreps:                  8
      Integral cutoff                 0.00e+00
      Number of functions per irrep: [   5    2    2    0    0    2    2    5 ]

 OEINTS: Overlap, kinetic, potential, dipole, and quadrupole integrals
         stored in file 35.

      Computing two-electron integrals...done
      Computed 2376 non-zero two-electron integrals.
        Stored in file 33.


*** tstart() called on compute-0-0.local
*** at Tue Aug 15 00:40:05 2017


	Wfn Parameters:
	--------------------
	Wavefunction         = CCSD_T
	Number of irreps     = 8
	Number of MOs        = 18
	Number of active MOs = 16
	AO-Basis             = NONE
	Semicanonical        = false
	Reference            = RHF
	Print Level          = 1

	IRREP	# MOs	# FZDC	# DOCC	# SOCC	# VIRT	# FZVR
	-----	-----	------	------	------	------	------
	 Ag	   5	    1	    1	    0	    3	    0
	 B1g	   2	    0	    0	    0	    2	    0
	 B2g	   2	    0	    0	    0	    2	    0
	 B3g	   0	    0	    0	    0	    0	    0
	 Au	   0	    0	    0	    0	    0	    0
	 B1u	   2	    0	    0	    0	    2	    0
	 B2u	   2	    0	    0	    0	    2	    0
	 B3u	   5	    1	    1	    0	    3	    0
	Transforming integrals...
	IWL integrals will be deleted.
	(OO|OO)...
	Presorting SO-basis two-electron integrals.
	Sorting File: SO Ints (nn|nn) nbuckets = 1
	Transforming the one-electron integrals and constructing Fock matrices
	Starting first half-transformation.
	Sorting half-transformed integrals.
	First half integral transformation complete.
	Starting second half-transformation.
	Two-electron integral transformation complete.
	(OO|OV)...
	Starting second half-transformation.
	Two-electron integral transformation complete.
	(OO|VV)...
	Starting second half-transformation.
	Two-electron integral transformation complete.
	(OV|OO)...
	Starting first half-transformation.
	Sorting half-transformed integrals.
	First half integral transformation complete.
	Starting second half-transformation.
	Two-electron integral transformation complete.
	(OV|OV)...
	Starting second half-transformation.
	Two-electron integral transformation complete.
	(OV|VV)...
	Starting second half-transformation.
	Two-electron integral transformation complete.
	(VV|OO)...
	Starting first half-transformation.
	Sorting half-transformed integrals.
	First half integral transformation complete.
	Starting second half-transformation.
	Two-electron integral transformation complete.
	(VV|OV)...
	Starting second half-transformation.
	Two-electron integral transformation complete.
	(VV|VV)...
	Starting second half-transformation.
	Two-electron integral transformation complete.
	Frozen core energy     =    -28.05494710685754

	Size of irrep 0 of <ab|cd> integrals:      0.001 (MW) /      0.009 (MB)
	Size of irrep 1 of <ab|cd> integrals:      0.001 (MW) /      0.005 (MB)
	Size of irrep 2 of <ab|cd> integrals:      0.001 (MW) /      0.005 (MB)
	Size of irrep 3 of <ab|cd> integrals:      0.000 (MW) /      0.002 (MB)
	Size of irrep 4 of <ab|cd> integrals:      0.000 (MW) /      0.002 (MB)
	Size of irrep 5 of <ab|cd> integrals:      0.001 (MW) /      0.005 (MB)
	Size of irrep 6 of <ab|cd> integrals:      0.001 (MW) /      0.005 (MB)
	Size of irrep 7 of <ab|cd> integrals:      0.001 (MW) /      0.009 (MB)
	Total:                                     0.005 (MW) /      0.041 (MB)

	Size of irrep 0 of <ia|bc> integrals:      0.000 (MW) /      0.002 (MB)
	Size of irrep 1 of <ia|bc> integrals:      0.000 (MW) /      0.001 (MB)
	Size of irrep 2 of <ia|bc> integrals:      0.000 (MW) /      0.001 (MB)
	Size of irrep 3 of <ia|bc> integrals:      0.000 (MW) /      0.000 (MB)
	Size of irrep 4 of <ia|bc> integrals:      0.000 (MW) /      0.000 (MB)
	Size of irrep 5 of <ia|bc> integrals:      0.000 (MW) /      0.001 (MB)
	Size of irrep 6 of <ia|bc> integrals:      0.000 (MW) /      0.001 (MB)
	Size of irrep 7 of <ia|bc> integrals:      0.000 (MW) /      0.002 (MB)
	Total:                                     0.001 (MW) /      0.006 (MB)

	Size of irrep 0 of tijab amplitudes:       0.000 (MW) /      0.001 (MB)
	Size of irrep 1 of tijab amplitudes:       0.000 (MW) /      0.000 (MB)
	Size of irrep 2 of tijab amplitudes:       0.000 (MW) /      0.000 (MB)
	Size of irrep 3 of tijab amplitudes:       0.000 (MW) /      0.000 (MB)
	Size of irrep 4 of tijab amplitudes:       0.000 (MW) /      0.000 (MB)
	Size of irrep 5 of tijab amplitudes:       0.000 (MW) /      0.000 (MB)
	Size of irrep 6 of tijab amplitudes:       0.000 (MW) /      0.000 (MB)
	Size of irrep 7 of tijab amplitudes:       0.000 (MW) /      0.001 (MB)
	Total:                                     0.000 (MW) /      0.001 (MB)

	Nuclear Rep. energy          =      1.11405728124211
	SCF energy                   =    -29.13352891344025
	One-electron energy          =     -3.18009534861867
	Two-electron energy          =      0.98745626079436
	Reference energy             =    -29.13352891343974

*** tstop() called on compute-0-0.local at Tue Aug 15 00:40:05 2017
Module time:
	user time   =       0.01 seconds =       0.00 minutes
	system time =       0.02 seconds =       0.00 minutes
	total time  =          0 seconds =       0.00 minutes
Total time:
	user time   =       0.23 seconds =       0.00 minutes
	system time =       0.03 seconds =       0.00 minutes
	total time  =          1 seconds =       0.02 minutes

*** tstart() called on compute-0-0.local
*** at Tue Aug 15 00:40:05 2017

            **************************
            *                        *
            *        CCENERGY        *
            *                        *
            **************************

    Nuclear Rep. energy (wfn)     =    1.114057281242106
    SCF energy          (wfn)     =  -29.133528913440252
    Reference energy    (file100) =  -29.133528913439743

    Input parameters:
    -----------------
    Wave function   =     CCSD_T
    Reference wfn   =     RHF
    Brueckner       =     No
    Memory (Mbytes) =     24000.0
    Maxiter         =     50
    R_Convergence   =     1.0e-07
    E_Convergence   =     1.0e-14
    Restart         =     Yes
    DIIS            =     Yes
    AO Basis        =     NONE
    ABCD            =     NEW
    Cache Level     =     2
    Cache Type      =     LOW
    Print Level     =     1
    Num. of threads =     1
    # Amps to Print =     10
    Print MP2 Amps? =     No
    Analyze T2 Amps =     No
    Print Pair Ener =     No
    Local CC        =     No
    SCS-MP2         =     False
    SCSN-MP2        =     False
    SCS-CCSD        =     False

MP2 correlation energy -0.0465569320742239
                Solving CC Amplitude Equations
                ------------------------------
  Iter             Energy              RMS        T1Diag      D1Diag    New D1Diag    D2Diag
  ----     ---------------------    ---------   ----------  ----------  ----------   --------
     0        -0.046556932074224    0.000e+00    0.000000    0.000000    0.000000    0.162031
     1        -0.069197891213195    1.194e-01    0.004421    0.006259    0.006259    0.244898
     2        -0.092226193514632    6.288e-02    0.011242    0.015921    0.015921    0.333412
     3        -0.091517884144311    4.061e-03    0.011698    0.016569    0.016569    0.331929
     4        -0.091936975354084    1.256e-03    0.011806    0.016722    0.016722    0.333557
     5        -0.091962134972244    8.397e-05    0.011799    0.016713    0.016713    0.333662
     6        -0.091958170423301    7.970e-06    0.011797    0.016710    0.016710    0.333648
     7        -0.091958950523446    3.779e-06    0.011797    0.016710    0.016710    0.333651
     8        -0.091959423219605    1.452e-06    0.011797    0.016710    0.016710    0.333653
     9        -0.091959466027642    1.115e-07    0.011797    0.016710    0.016710    0.333653
    10        -0.091959446779793    6.379e-08    0.011797    0.016710    0.016710    0.333653
    11        -0.091959446940488    1.451e-08    0.011797    0.016710    0.016710    0.333653
    12        -0.091959446892911    4.698e-09    0.011797    0.016710    0.016710    0.333653
    13        -0.091959446987721    1.438e-09    0.011797    0.016710    0.016710    0.333653
    14        -0.091959447023804    5.175e-10    0.011797    0.016710    0.016710    0.333653
    15        -0.091959447026960    6.180e-11    0.011797    0.016710    0.016710    0.333653
    16        -0.091959447027266    2.158e-11    0.011797    0.016710    0.016710    0.333653
    17        -0.091959447027685    1.088e-11    0.011797    0.016710    0.016710    0.333653
    18        -0.091959447027694    5.831e-12    0.011797    0.016710    0.016710    0.333653
    19        -0.091959447027654    4.064e-12    0.011797    0.016710    0.016710    0.333653

    Iterations converged.


    Largest TIA Amplitudes:
              0   1        -0.0166776002
              1  12        -0.0166349728
              0   2        -0.0010303679
              1  13        -0.0008501917
              1  11        -0.0001937871
              0   0        -0.0001658077

    Largest TIjAb Amplitudes:
      1   1  11  11        -0.0873377300
      0   1   0  11         0.0872077569
      1   0  11   0         0.0872077569
      0   0   0   0        -0.0870786840
      1   1   3   3        -0.0866914508
      1   1   5   5        -0.0866914508
      0   1   7   5        -0.0866595060
      0   1   9   3        -0.0866595060
      1   0   3   9        -0.0866595060
      1   0   5   7        -0.0866595060

    SCF energy       (wfn)                    =  -29.133528913440252
    Reference energy (file100)                =  -29.133528913439743

    Opposite-spin MP2 correlation energy      =   -0.046545610397863
    Same-spin MP2 correlation energy          =   -0.000011321676361
    MP2 correlation energy                    =   -0.046556932074224
      * MP2 total energy                      =  -29.180085845513968

    Opposite-spin CCSD correlation energy     =   -0.091947774430564
    Same-spin CCSD correlation energy         =   -0.000011672586241
    CCSD correlation energy                   =   -0.091959447027654
      * CCSD total energy                     =  -29.225488360467399


*** tstop() called on compute-0-0.local at Tue Aug 15 00:40:08 2017
Module time:
	user time   =       0.18 seconds =       0.00 minutes
	system time =       0.22 seconds =       0.00 minutes
	total time  =          3 seconds =       0.05 minutes
Total time:
	user time   =       0.41 seconds =       0.01 minutes
	system time =       0.25 seconds =       0.00 minutes
	total time  =          4 seconds =       0.07 minutes

*** tstart() called on compute-0-0.local
*** at Tue Aug 15 00:40:08 2017

            **************************
            *                        *
            *        CCTRIPLES       *
            *                        *
            **************************


    Wave function   =    CCSD_T
    Reference wfn   =      RHF

    Nuclear Rep. energy (wfn)                =    1.114057281242106
    SCF energy          (wfn)                =  -29.133528913440252
    Reference energy    (file100)            =  -29.133528913439743
    CCSD energy         (file100)            =   -0.091959447027654
    Total CCSD energy   (file100)            =  -29.225488360467399

    Number of ijk index combinations:                4
    Memory available in words        :      3000000000
    ~Words needed per explicit thread:             108
    Number of threads for explicit ijk threading:    1

    (T) energy                                =   -0.000000970132282
      * CCSD(T) total energy                  =  -29.225489330599679


*** tstop() called on compute-0-0.local at Tue Aug 15 00:40:08 2017
Module time:
	user time   =       0.01 seconds =       0.00 minutes
	system time =       0.02 seconds =       0.00 minutes
	total time  =          0 seconds =       0.00 minutes
Total time:
	user time   =       0.42 seconds =       0.01 minutes
	system time =       0.27 seconds =       0.00 minutes
	total time  =          4 seconds =       0.07 minutes

*** Psi4 exiting successfully. Buy a developer a beer!
