    -----------------------------------------------------------------------
          Psi4: An Open-Source Ab Initio Electronic Structure Package
                              Psi4 1.0.0 Driver

                          Git: Rev {master} 6a9a71b dirty

    J. M. Turney, A. C. Simmonett, R. M. Parrish, E. G. Hohenstein,
    F. A. Evangelista, J. T. Fermann, B. J. Mintz, L. A. Burns, J. J. Wilke,
    M. L. Abrams, N. J. Russ, M. L. Leininger, C. L. Janssen, E. T. Seidl,
    W. D. Allen, H. F. Schaefer, R. A. King, E. F. Valeev, C. D. Sherrill,
    and T. D. Crawford, WIREs Comput. Mol. Sci. 2, 556-565 (2012)
    (doi: 10.1002/wcms.93)

                         Additional Contributions by
    A. E. DePrince, U. Bozkaya, A. Yu. Sokolov, D. G. A. Smith, R. Di Remigio,
    R. M. Richard, J. F. Gonthier, H. R. McAlexander, M. Saitow, and
    B. P. Pritchard
    -----------------------------------------------------------------------


    Psi4 started on: Tue Aug 15 00:35:42 2017

    Process ID:   8618
    PSI4DATADIR: /home/yhliu/psi4conda/share/psi4
    Memory level set to 256.000 MB

  ==> Input File <==

--------------------------------------------------------------------------
memory 24 Gb
molecule be2 {
0 1
Be   0.0    0.0 0.0
Be   6.5    0.0 0.0
units angstrom    
}

set basis 6-31g
set freeze_core true
set PRINT_BASIS True
set PUREAM False
set E_CONVERGENCE 1e-14
energy('ccsd(t)')
--------------------------------------------------------------------------
/home/yhliu/psi4conda/lib/python2.7/site-packages/v2rdm_casscf/v2rdm_casscf.so loaded.

  Memory set to  24.000 GiB by Python script.

*** tstart() called on compute-0-0.local
*** at Tue Aug 15 00:35:43 2017


         ---------------------------------------------------------
                                   SCF
            by Justin Turney, Rob Parrish, and Andy Simmonett
                              RHF Reference
                        1 Threads,  24000 MiB Core
         ---------------------------------------------------------

  ==> Geometry <==

    Molecular point group: d2h
    Full point group: D_inf_h

    Geometry (in Angstrom), charge = 0, multiplicity = 1:

       Center              X                  Y                   Z               Mass       
    ------------   -----------------  -----------------  -----------------  -----------------
          BE         -3.250000000000    -0.000000000000     0.000000000000     9.012182201000
          BE          3.250000000000     0.000000000000     0.000000000000     9.012182201000

  Running in d2h symmetry.

  Rotational constants: A = ************  B =      0.08855  C =      0.08855 [cm^-1]
  Rotational constants: A = ************  B =   2654.54759  C =   2654.54759 [MHz]
  Nuclear repulsion =    1.302590051913846

  Charge       = 0
  Multiplicity = 1
  Electrons    = 8
  Nalpha       = 4
  Nbeta        = 4

  ==> Algorithm <==

  SCF Algorithm Type is PK.
  DIIS enabled.
  MOM disabled.
  Fractional occupation disabled.
  Guess Type is SAD.
  Energy threshold   = 1.00e-14
  Density threshold  = 1.00e-08
  Integral threshold = 0.00e+00

  ==> Primary Basis <==

  Basis Set: 6-31G
    Number of shells: 10
    Number of basis function: 18
    Number of Cartesian functions: 18
    Spherical Harmonics?: false
    Max angular momentum: 1

  -AO BASIS SET INFORMATION:
    Name                   = 6-31G
    Total number of shells = 10
    Number of primitives   = 28
    Number of AO           = 18
    Number of SO           = 18
    Maximum AM             = 1
    Spherical Harmonics    = FALSE

  -Contraction Scheme:
    Atom   Type   All Primitives // Shells:
   ------ ------ --------------------------
       1    BE     10s 4p // 3s 2p 
       2    BE     10s 4p // 3s 2p 

  ==> AO Basis Functions <==

    [ 6-31G ]
    cartesian
    ****
   BE   1
    S   6 1.00
                      1264.58570000           0.00194480
                       189.93681000           0.01483510
                        43.15908900           0.07209060
                        12.09866300           0.23715420
                         3.80632320           0.46919870
                         1.27289030           0.35652020
    S   3 1.00
                         3.19646310          -0.11264870
                         0.74781330          -0.22950640
                         0.21996630           1.18691670
    P   3 1.00
                         3.19646310           0.05598020
                         0.74781330           0.26155060
                         0.21996630           0.79397230
    S   1 1.00
                         0.08230990           1.00000000
    P   1 1.00
                         0.08230990           1.00000000
    ****

  ==> Pre-Iterations <==

   -------------------------------------------------------
    Irrep   Nso     Nmo     Nalpha   Nbeta   Ndocc  Nsocc
   -------------------------------------------------------
     Ag         5       5       0       0       0       0
     B1g        2       2       0       0       0       0
     B2g        2       2       0       0       0       0
     B3g        0       0       0       0       0       0
     Au         0       0       0       0       0       0
     B1u        2       2       0       0       0       0
     B2u        2       2       0       0       0       0
     B3u        5       5       0       0       0       0
   -------------------------------------------------------
    Total      18      18       4       4       4       0
   -------------------------------------------------------

  ==> Integral Setup <==

  Using in-core PK algorithm.
   Calculation information:
      Number of atoms:                   2
      Number of AO shells:              10
      Number of primitives:             28
      Number of atomic orbitals:        18
      Number of basis functions:        18

      Integral cutoff                 1.00e-12
      Number of threads:                 1

  Performing in-core PK
  Using 29412 doubles for integral storage.
  We computed 1261 shell quartets total.
  Whereas there are 1540 unique shell quartets.
  ==> DiskJK: Disk-Based J/K Matrices <==

    J tasked:                  Yes
    K tasked:                  Yes
    wK tasked:                  No
    Memory (MB):             17166
    Schwarz Cutoff:          1E-12

    OpenMP threads:              1
  Minimum eigenvalue in the overlap matrix is 1.2759795636E-01.
  Using Symmetric Orthogonalization.
  SCF Guess: Superposition of Atomic Densities via on-the-fly atomic UHF.

  ==> Iterations <==

                        Total Energy        Delta E     RMS |[F,P]|

   @RHF iter   0:   -29.13352907905911   -2.91335e+01   3.90765e-04 
   @RHF iter   1:   -29.13354789881443   -1.88198e-05   6.74188e-05 
   @RHF iter   2:   -29.13354867658029   -7.77766e-07   1.39014e-05 DIIS
   @RHF iter   3:   -29.13354871551852   -3.89382e-08   7.01724e-07 DIIS
   @RHF iter   4:   -29.13354871560462   -8.60965e-11   7.46070e-08 DIIS
   @RHF iter   5:   -29.13354871560538   -7.63833e-13   2.94602e-09 DIIS
   @RHF iter   6:   -29.13354871560537    1.06581e-14   4.31889e-10 DIIS
   @RHF iter   7:   -29.13354871560539   -1.42109e-14   5.49496e-11 DIIS
   @RHF iter   8:   -29.13354871560537    1.42109e-14   2.13748e-12 DIIS
   @RHF iter   9:   -29.13354871560539   -1.42109e-14   4.18886e-13 DIIS
   @RHF iter  10:   -29.13354871560539    0.00000e+00   1.98640e-14 DIIS

  ==> Post-Iterations <==

    Orbital Energies (a.u.)
    -----------------------

    Doubly Occupied:                                                      

       1B3u   -4.706924     1Ag    -4.706923     2Ag    -0.301809  
       2B3u   -0.300797  

    Virtual:                                                              

       3Ag     0.077047     1B2u    0.081860     1B1u    0.081860  
       1B1g    0.082994     1B2g    0.082994     3B3u    0.087755  
       4Ag     0.431890     4B3u    0.442610     5Ag     0.454883  
       2B2u    0.463375     2B1u    0.463375     2B1g    0.466472  
       2B2g    0.466472     5B3u    0.482319  

    Final Occupation by Irrep:
             Ag   B1g   B2g   B3g    Au   B1u   B2u   B3u 
    DOCC [     2,    0,    0,    0,    0,    0,    0,    2 ]

  Energy converged.

  @RHF Final Energy:   -29.13354871560539

   => Energetics <=

    Nuclear Repulsion Energy =              1.3025900519138458
    One-Electron Energy =                 -40.8393707711686460
    Two-Electron Energy =                  10.4032320036494177
    DFT Exchange-Correlation Energy =       0.0000000000000000
    Empirical Dispersion Energy =           0.0000000000000000
    PCM Polarization Energy =               0.0000000000000000
    EFP Energy =                            0.0000000000000000
    Total Energy =                        -29.1335487156053823


  Saving occupied orbitals to File 180.

*** tstop() called on compute-0-0.local at Tue Aug 15 00:35:43 2017
Module time:
	user time   =       0.14 seconds =       0.00 minutes
	system time =       0.00 seconds =       0.00 minutes
	total time  =          0 seconds =       0.00 minutes
Total time:
	user time   =       0.14 seconds =       0.00 minutes
	system time =       0.00 seconds =       0.00 minutes
	total time  =          0 seconds =       0.00 minutes


Properties will be evaluated at   0.000000,   0.000000,   0.000000 Bohr

Properties computed using the SCF density matrix

  Nuclear Dipole Moment: (a.u.)
     X:     0.0000      Y:     0.0000      Z:     0.0000

  Electronic Dipole Moment: (a.u.)
     X:     0.0000      Y:     0.0000      Z:     0.0000

  Dipole Moment: (a.u.)
     X:     0.0000      Y:     0.0000      Z:     0.0000     Total:     0.0000

  Dipole Moment: (Debye)
     X:     0.0000      Y:     0.0000      Z:     0.0000     Total:     0.0000

 MINTS: Wrapper to libmints.
   by Justin Turney

   Calculation information:
      Number of atoms:                   2
      Number of AO shells:              10
      Number of SO shells:               5
      Number of primitives:             28
      Number of atomic orbitals:        18
      Number of basis functions:        18

      Number of irreps:                  8
      Integral cutoff                 0.00e+00
      Number of functions per irrep: [   5    2    2    0    0    2    2    5 ]

 OEINTS: Overlap, kinetic, potential, dipole, and quadrupole integrals
         stored in file 35.

      Computing two-electron integrals...done
      Computed 2376 non-zero two-electron integrals.
        Stored in file 33.


*** tstart() called on compute-0-0.local
*** at Tue Aug 15 00:35:43 2017


	Wfn Parameters:
	--------------------
	Wavefunction         = CCSD_T
	Number of irreps     = 8
	Number of MOs        = 18
	Number of active MOs = 16
	AO-Basis             = NONE
	Semicanonical        = false
	Reference            = RHF
	Print Level          = 1

	IRREP	# MOs	# FZDC	# DOCC	# SOCC	# VIRT	# FZVR
	-----	-----	------	------	------	------	------
	 Ag	   5	    1	    1	    0	    3	    0
	 B1g	   2	    0	    0	    0	    2	    0
	 B2g	   2	    0	    0	    0	    2	    0
	 B3g	   0	    0	    0	    0	    0	    0
	 Au	   0	    0	    0	    0	    0	    0
	 B1u	   2	    0	    0	    0	    2	    0
	 B2u	   2	    0	    0	    0	    2	    0
	 B3u	   5	    1	    1	    0	    3	    0
	Transforming integrals...
	IWL integrals will be deleted.
	(OO|OO)...
	Presorting SO-basis two-electron integrals.
	Sorting File: SO Ints (nn|nn) nbuckets = 1
	Transforming the one-electron integrals and constructing Fock matrices
	Starting first half-transformation.
	Sorting half-transformed integrals.
	First half integral transformation complete.
	Starting second half-transformation.
	Two-electron integral transformation complete.
	(OO|OV)...
	Starting second half-transformation.
	Two-electron integral transformation complete.
	(OO|VV)...
	Starting second half-transformation.
	Two-electron integral transformation complete.
	(OV|OO)...
	Starting first half-transformation.
	Sorting half-transformed integrals.
	First half integral transformation complete.
	Starting second half-transformation.
	Two-electron integral transformation complete.
	(OV|OV)...
	Starting second half-transformation.
	Two-electron integral transformation complete.
	(OV|VV)...
	Starting second half-transformation.
	Two-electron integral transformation complete.
	(VV|OO)...
	Starting first half-transformation.
	Sorting half-transformed integrals.
	First half integral transformation complete.
	Starting second half-transformation.
	Two-electron integral transformation complete.
	(VV|OV)...
	Starting second half-transformation.
	Two-electron integral transformation complete.
	(VV|VV)...
	Starting second half-transformation.
	Two-electron integral transformation complete.
	Frozen core energy     =    -28.19634672639921

	Size of irrep 0 of <ab|cd> integrals:      0.001 (MW) /      0.009 (MB)
	Size of irrep 1 of <ab|cd> integrals:      0.001 (MW) /      0.005 (MB)
	Size of irrep 2 of <ab|cd> integrals:      0.001 (MW) /      0.005 (MB)
	Size of irrep 3 of <ab|cd> integrals:      0.000 (MW) /      0.002 (MB)
	Size of irrep 4 of <ab|cd> integrals:      0.000 (MW) /      0.002 (MB)
	Size of irrep 5 of <ab|cd> integrals:      0.001 (MW) /      0.005 (MB)
	Size of irrep 6 of <ab|cd> integrals:      0.001 (MW) /      0.005 (MB)
	Size of irrep 7 of <ab|cd> integrals:      0.001 (MW) /      0.009 (MB)
	Total:                                     0.005 (MW) /      0.041 (MB)

	Size of irrep 0 of <ia|bc> integrals:      0.000 (MW) /      0.002 (MB)
	Size of irrep 1 of <ia|bc> integrals:      0.000 (MW) /      0.001 (MB)
	Size of irrep 2 of <ia|bc> integrals:      0.000 (MW) /      0.001 (MB)
	Size of irrep 3 of <ia|bc> integrals:      0.000 (MW) /      0.000 (MB)
	Size of irrep 4 of <ia|bc> integrals:      0.000 (MW) /      0.000 (MB)
	Size of irrep 5 of <ia|bc> integrals:      0.000 (MW) /      0.001 (MB)
	Size of irrep 6 of <ia|bc> integrals:      0.000 (MW) /      0.001 (MB)
	Size of irrep 7 of <ia|bc> integrals:      0.000 (MW) /      0.002 (MB)
	Total:                                     0.001 (MW) /      0.006 (MB)

	Size of irrep 0 of tijab amplitudes:       0.000 (MW) /      0.001 (MB)
	Size of irrep 1 of tijab amplitudes:       0.000 (MW) /      0.000 (MB)
	Size of irrep 2 of tijab amplitudes:       0.000 (MW) /      0.000 (MB)
	Size of irrep 3 of tijab amplitudes:       0.000 (MW) /      0.000 (MB)
	Size of irrep 4 of tijab amplitudes:       0.000 (MW) /      0.000 (MB)
	Size of irrep 5 of tijab amplitudes:       0.000 (MW) /      0.000 (MB)
	Size of irrep 6 of tijab amplitudes:       0.000 (MW) /      0.000 (MB)
	Size of irrep 7 of tijab amplitudes:       0.000 (MW) /      0.001 (MB)
	Total:                                     0.000 (MW) /      0.001 (MB)

	Nuclear Rep. energy          =      1.30259005191385
	SCF energy                   =    -29.13354871560539
	One-electron energy          =     -3.27437171519407
	Two-electron energy          =      1.03457967407403
	Reference energy             =    -29.13354871560541

*** tstop() called on compute-0-0.local at Tue Aug 15 00:35:44 2017
Module time:
	user time   =       0.02 seconds =       0.00 minutes
	system time =       0.03 seconds =       0.00 minutes
	total time  =          1 seconds =       0.02 minutes
Total time:
	user time   =       0.19 seconds =       0.00 minutes
	system time =       0.04 seconds =       0.00 minutes
	total time  =          1 seconds =       0.02 minutes

*** tstart() called on compute-0-0.local
*** at Tue Aug 15 00:35:44 2017

            **************************
            *                        *
            *        CCENERGY        *
            *                        *
            **************************

    Nuclear Rep. energy (wfn)     =    1.302590051913846
    SCF energy          (wfn)     =  -29.133548715605386
    Reference energy    (file100) =  -29.133548715605407

    Input parameters:
    -----------------
    Wave function   =     CCSD_T
    Reference wfn   =     RHF
    Brueckner       =     No
    Memory (Mbytes) =     24000.0
    Maxiter         =     50
    R_Convergence   =     1.0e-07
    E_Convergence   =     1.0e-14
    Restart         =     Yes
    DIIS            =     Yes
    AO Basis        =     NONE
    ABCD            =     NEW
    Cache Level     =     2
    Cache Type      =     LOW
    Print Level     =     1
    Num. of threads =     1
    # Amps to Print =     10
    Print MP2 Amps? =     No
    Analyze T2 Amps =     No
    Print Pair Ener =     No
    Local CC        =     No
    SCS-MP2         =     False
    SCSN-MP2        =     False
    SCS-CCSD        =     False

MP2 correlation energy -0.0465902450925861
                Solving CC Amplitude Equations
                ------------------------------
  Iter             Energy              RMS        T1Diag      D1Diag    New D1Diag    D2Diag
  ----     ---------------------    ---------   ----------  ----------  ----------   --------
     0        -0.046590245092586    0.000e+00    0.000000    0.000000    0.000000    0.162211
     1        -0.069230238714450    1.194e-01    0.004414    0.006284    0.006284    0.245123
     2        -0.092227302707589    6.284e-02    0.011231    0.016033    0.016033    0.333592
     3        -0.091526940989610    4.099e-03    0.011699    0.016721    0.016721    0.332142
     4        -0.091966254154276    1.264e-03    0.011814    0.016887    0.016887    0.333850
     5        -0.091972311092401    6.018e-05    0.011803    0.016873    0.016873    0.333880
     6        -0.091970035654224    1.136e-05    0.011802    0.016871    0.016871    0.333872
     7        -0.091969287946359    2.953e-06    0.011801    0.016869    0.016869    0.333870
     8        -0.091969798123507    2.032e-06    0.011801    0.016869    0.016869    0.333872
     9        -0.091969924168949    5.276e-07    0.011801    0.016869    0.016869    0.333872
    10        -0.091969955405031    1.628e-07    0.011801    0.016869    0.016869    0.333872
    11        -0.091969955816014    3.762e-08    0.011801    0.016869    0.016869    0.333872
    12        -0.091969956149201    1.488e-08    0.011801    0.016869    0.016869    0.333872
    13        -0.091969956220284    4.431e-09    0.011801    0.016869    0.016869    0.333872
    14        -0.091969956247449    1.900e-09    0.011801    0.016869    0.016869    0.333872
    15        -0.091969956271654    1.271e-09    0.011801    0.016869    0.016869    0.333872
    16        -0.091969956260182    4.008e-10    0.011801    0.016869    0.016869    0.333872
    17        -0.091969956253253    1.252e-10    0.011801    0.016869    0.016869    0.333872
    18        -0.091969956248744    5.271e-11    0.011801    0.016869    0.016869    0.333872
    19        -0.091969956247993    1.189e-11    0.011801    0.016869    0.016869    0.333872
    20        -0.091969956247702    4.051e-12    0.011801    0.016869    0.016869    0.333872
    21        -0.091969956247668    1.499e-12    0.011801    0.016869    0.016869    0.333872
    22        -0.091969956247650    6.814e-13    0.011801    0.016869    0.016869    0.333872
    23        -0.091969956247651    2.767e-13    0.011801    0.016869    0.016869    0.333872
    24        -0.091969956247649    1.202e-13    0.011801    0.016869    0.016869    0.333872

    Iterations converged.


    Largest TIA Amplitudes:
              1  12        -0.0160869178
              0   1        -0.0156873110
              0   2        -0.0061110631
              1  13        -0.0035299098
              1  11         0.0010969709
              0   0         0.0010666612

    Largest TIjAb Amplitudes:
      1   1  11  11        -0.0883187291
      0   1   0  11         0.0878104269
      1   0  11   0         0.0878104269
      0   0   0   0        -0.0873351567
      1   1   3   3        -0.0872166140
      1   1   5   5        -0.0872166140
      0   1   7   5        -0.0869812387
      0   1   9   3        -0.0869812387
      1   0   3   9        -0.0869812387
      1   0   5   7        -0.0869812387

    SCF energy       (wfn)                    =  -29.133548715605386
    Reference energy (file100)                =  -29.133548715605407

    Opposite-spin MP2 correlation energy      =   -0.046560987564576
    Same-spin MP2 correlation energy          =   -0.000029257528010
    MP2 correlation energy                    =   -0.046590245092586
      * MP2 total energy                      =  -29.180138960697992

    Opposite-spin CCSD correlation energy     =   -0.091939810087878
    Same-spin CCSD correlation energy         =   -0.000030146159770
    CCSD correlation energy                   =   -0.091969956247649
      * CCSD total energy                     =  -29.225518671853056


*** tstop() called on compute-0-0.local at Tue Aug 15 00:37:08 2017
Module time:
	user time   =       0.23 seconds =       0.00 minutes
	system time =       0.39 seconds =       0.01 minutes
	total time  =         84 seconds =       1.40 minutes
Total time:
	user time   =       0.42 seconds =       0.01 minutes
	system time =       0.43 seconds =       0.01 minutes
	total time  =         85 seconds =       1.42 minutes

*** tstart() called on compute-0-0.local
*** at Tue Aug 15 00:37:08 2017

            **************************
            *                        *
            *        CCTRIPLES       *
            *                        *
            **************************


    Wave function   =    CCSD_T
    Reference wfn   =      RHF

    Nuclear Rep. energy (wfn)                =    1.302590051913846
    SCF energy          (wfn)                =  -29.133548715605386
    Reference energy    (file100)            =  -29.133548715605407
    CCSD energy         (file100)            =   -0.091969956247649
    Total CCSD energy   (file100)            =  -29.225518671853056

    Number of ijk index combinations:                4
    Memory available in words        :      3000000000
    ~Words needed per explicit thread:             108
    Number of threads for explicit ijk threading:    1

    (T) energy                                =   -0.000002870430557
      * CCSD(T) total energy                  =  -29.225521542283612


*** tstop() called on compute-0-0.local at Tue Aug 15 00:37:08 2017
Module time:
	user time   =       0.02 seconds =       0.00 minutes
	system time =       0.01 seconds =       0.00 minutes
	total time  =          0 seconds =       0.00 minutes
Total time:
	user time   =       0.44 seconds =       0.01 minutes
	system time =       0.44 seconds =       0.01 minutes
	total time  =         85 seconds =       1.42 minutes

*** Psi4 exiting successfully. Buy a developer a beer!
