    -----------------------------------------------------------------------
          Psi4: An Open-Source Ab Initio Electronic Structure Package
                              Psi4 1.0.0 Driver

                          Git: Rev {master} 6a9a71b dirty

    J. M. Turney, A. C. Simmonett, R. M. Parrish, E. G. Hohenstein,
    F. A. Evangelista, J. T. Fermann, B. J. Mintz, L. A. Burns, J. J. Wilke,
    M. L. Abrams, N. J. Russ, M. L. Leininger, C. L. Janssen, E. T. Seidl,
    W. D. Allen, H. F. Schaefer, R. A. King, E. F. Valeev, C. D. Sherrill,
    and T. D. Crawford, WIREs Comput. Mol. Sci. 2, 556-565 (2012)
    (doi: 10.1002/wcms.93)

                         Additional Contributions by
    A. E. DePrince, U. Bozkaya, A. Yu. Sokolov, D. G. A. Smith, R. Di Remigio,
    R. M. Richard, J. F. Gonthier, H. R. McAlexander, M. Saitow, and
    B. P. Pritchard
    -----------------------------------------------------------------------


    Psi4 started on: Tue Aug 15 00:23:32 2017

    Process ID:   7535
    PSI4DATADIR: /home/yhliu/psi4conda/share/psi4
    Memory level set to 256.000 MB

  ==> Input File <==

--------------------------------------------------------------------------
memory 24 Gb
molecule be2 {
0 1
Be   0.0    0.0 0.0
Be   3.8    0.0 0.0
units angstrom    
}

set basis 6-31g
set freeze_core true
set PRINT_BASIS True
set PUREAM False
set E_CONVERGENCE 1e-14
energy('ccsd(t)')
--------------------------------------------------------------------------
/home/yhliu/psi4conda/lib/python2.7/site-packages/v2rdm_casscf/v2rdm_casscf.so loaded.

  Memory set to  24.000 GiB by Python script.

*** tstart() called on compute-0-0.local
*** at Tue Aug 15 00:23:34 2017


         ---------------------------------------------------------
                                   SCF
            by Justin Turney, Rob Parrish, and Andy Simmonett
                              RHF Reference
                        1 Threads,  24000 MiB Core
         ---------------------------------------------------------

  ==> Geometry <==

    Molecular point group: d2h
    Full point group: D_inf_h

    Geometry (in Angstrom), charge = 0, multiplicity = 1:

       Center              X                  Y                   Z               Mass       
    ------------   -----------------  -----------------  -----------------  -----------------
          BE         -1.900000000000    -0.000000000000     0.000000000000     9.012182201000
          BE          1.900000000000     0.000000000000     0.000000000000     9.012182201000

  Running in d2h symmetry.

  Rotational constants: A = ************  B =      0.25908  C =      0.25908 [cm^-1]
  Rotational constants: A = ************  B =   7766.94152  C =   7766.94152 [MHz]
  Nuclear repulsion =    2.228114562484212

  Charge       = 0
  Multiplicity = 1
  Electrons    = 8
  Nalpha       = 4
  Nbeta        = 4

  ==> Algorithm <==

  SCF Algorithm Type is PK.
  DIIS enabled.
  MOM disabled.
  Fractional occupation disabled.
  Guess Type is SAD.
  Energy threshold   = 1.00e-14
  Density threshold  = 1.00e-08
  Integral threshold = 0.00e+00

  ==> Primary Basis <==

  Basis Set: 6-31G
    Number of shells: 10
    Number of basis function: 18
    Number of Cartesian functions: 18
    Spherical Harmonics?: false
    Max angular momentum: 1

  -AO BASIS SET INFORMATION:
    Name                   = 6-31G
    Total number of shells = 10
    Number of primitives   = 28
    Number of AO           = 18
    Number of SO           = 18
    Maximum AM             = 1
    Spherical Harmonics    = FALSE

  -Contraction Scheme:
    Atom   Type   All Primitives // Shells:
   ------ ------ --------------------------
       1    BE     10s 4p // 3s 2p 
       2    BE     10s 4p // 3s 2p 

  ==> AO Basis Functions <==

    [ 6-31G ]
    cartesian
    ****
   BE   1
    S   6 1.00
                      1264.58570000           0.00194480
                       189.93681000           0.01483510
                        43.15908900           0.07209060
                        12.09866300           0.23715420
                         3.80632320           0.46919870
                         1.27289030           0.35652020
    S   3 1.00
                         3.19646310          -0.11264870
                         0.74781330          -0.22950640
                         0.21996630           1.18691670
    P   3 1.00
                         3.19646310           0.05598020
                         0.74781330           0.26155060
                         0.21996630           0.79397230
    S   1 1.00
                         0.08230990           1.00000000
    P   1 1.00
                         0.08230990           1.00000000
    ****

  ==> Pre-Iterations <==

   -------------------------------------------------------
    Irrep   Nso     Nmo     Nalpha   Nbeta   Ndocc  Nsocc
   -------------------------------------------------------
     Ag         5       5       0       0       0       0
     B1g        2       2       0       0       0       0
     B2g        2       2       0       0       0       0
     B3g        0       0       0       0       0       0
     Au         0       0       0       0       0       0
     B1u        2       2       0       0       0       0
     B2u        2       2       0       0       0       0
     B3u        5       5       0       0       0       0
   -------------------------------------------------------
    Total      18      18       4       4       4       0
   -------------------------------------------------------

  ==> Integral Setup <==

  Using in-core PK algorithm.
   Calculation information:
      Number of atoms:                   2
      Number of AO shells:              10
      Number of primitives:             28
      Number of atomic orbitals:        18
      Number of basis functions:        18

      Integral cutoff                 1.00e-12
      Number of threads:                 1

  Performing in-core PK
  Using 29412 doubles for integral storage.
  We computed 1485 shell quartets total.
  Whereas there are 1540 unique shell quartets.
  ==> DiskJK: Disk-Based J/K Matrices <==

    J tasked:                  Yes
    K tasked:                  Yes
    wK tasked:                  No
    Memory (MB):             17166
    Schwarz Cutoff:          1E-12

    OpenMP threads:              1
  Minimum eigenvalue in the overlap matrix is 7.7968687374E-02.
  Using Symmetric Orthogonalization.
  SCF Guess: Superposition of Atomic Densities via on-the-fly atomic UHF.

  ==> Iterations <==

                        Total Energy        Delta E     RMS |[F,P]|

   @RHF iter   0:   -29.13957103576470   -2.91396e+01   4.48907e-03 
   @RHF iter   1:   -29.13314374521612    6.42729e-03   6.97770e-04 
   @RHF iter   2:   -29.13324388238307   -1.00137e-04   2.48082e-04 DIIS
   @RHF iter   3:   -29.13325964203693   -1.57597e-05   2.36654e-05 DIIS
   @RHF iter   4:   -29.13325975495543   -1.12918e-07   3.95512e-06 DIIS
   @RHF iter   5:   -29.13325975685330   -1.89787e-09   2.99102e-07 DIIS
   @RHF iter   6:   -29.13325975686388   -1.05729e-11   1.86152e-08 DIIS
   @RHF iter   7:   -29.13325975686390   -2.13163e-14   8.93813e-10 DIIS
   @RHF iter   8:   -29.13325975686391   -1.42109e-14   9.54100e-11 DIIS
   @RHF iter   9:   -29.13325975686391    3.55271e-15   3.47337e-12 DIIS

  ==> Post-Iterations <==

    Orbital Energies (a.u.)
    -----------------------

    Doubly Occupied:                                                      

       1B3u   -4.707922     1Ag    -4.707920     2Ag    -0.321402  
       2B3u   -0.282415  

    Virtual:                                                              

       3Ag     0.054411     1B2u    0.068251     1B1u    0.068251  
       1B1g    0.097293     1B2g    0.097293     3B3u    0.142123  
       4Ag     0.429986     4B3u    0.447459     2B2u    0.452252  
       2B1u    0.452252     2B1g    0.483577     2B2g    0.483577  
       5Ag     0.502305     5B3u    0.576466  

    Final Occupation by Irrep:
             Ag   B1g   B2g   B3g    Au   B1u   B2u   B3u 
    DOCC [     2,    0,    0,    0,    0,    0,    0,    2 ]

  Energy converged.

  @RHF Final Energy:   -29.13325975686391

   => Energetics <=

    Nuclear Repulsion Energy =              2.2281145624842118
    One-Electron Energy =                 -42.6834328417685214
    Two-Electron Energy =                  11.3220585224204093
    DFT Exchange-Correlation Energy =       0.0000000000000000
    Empirical Dispersion Energy =           0.0000000000000000
    PCM Polarization Energy =               0.0000000000000000
    EFP Energy =                            0.0000000000000000
    Total Energy =                        -29.1332597568639038


  Saving occupied orbitals to File 180.

*** tstop() called on compute-0-0.local at Tue Aug 15 00:23:56 2017
Module time:
	user time   =       0.16 seconds =       0.00 minutes
	system time =       0.01 seconds =       0.00 minutes
	total time  =         22 seconds =       0.37 minutes
Total time:
	user time   =       0.16 seconds =       0.00 minutes
	system time =       0.01 seconds =       0.00 minutes
	total time  =         22 seconds =       0.37 minutes


Properties will be evaluated at   0.000000,   0.000000,   0.000000 Bohr

Properties computed using the SCF density matrix

  Nuclear Dipole Moment: (a.u.)
     X:     0.0000      Y:     0.0000      Z:     0.0000

  Electronic Dipole Moment: (a.u.)
     X:     0.0000      Y:     0.0000      Z:     0.0000

  Dipole Moment: (a.u.)
     X:     0.0000      Y:     0.0000      Z:     0.0000     Total:     0.0000

  Dipole Moment: (Debye)
     X:     0.0000      Y:     0.0000      Z:     0.0000     Total:     0.0000

 MINTS: Wrapper to libmints.
   by Justin Turney

   Calculation information:
      Number of atoms:                   2
      Number of AO shells:              10
      Number of SO shells:               5
      Number of primitives:             28
      Number of atomic orbitals:        18
      Number of basis functions:        18

      Number of irreps:                  8
      Integral cutoff                 0.00e+00
      Number of functions per irrep: [   5    2    2    0    0    2    2    5 ]

 OEINTS: Overlap, kinetic, potential, dipole, and quadrupole integrals
         stored in file 35.

      Computing two-electron integrals...done
      Computed 2376 non-zero two-electron integrals.
        Stored in file 33.


*** tstart() called on compute-0-0.local
*** at Tue Aug 15 00:23:57 2017


	Wfn Parameters:
	--------------------
	Wavefunction         = CCSD_T
	Number of irreps     = 8
	Number of MOs        = 18
	Number of active MOs = 16
	AO-Basis             = NONE
	Semicanonical        = false
	Reference            = RHF
	Print Level          = 1

	IRREP	# MOs	# FZDC	# DOCC	# SOCC	# VIRT	# FZVR
	-----	-----	------	------	------	------	------
	 Ag	   5	    1	    1	    0	    3	    0
	 B1g	   2	    0	    0	    0	    2	    0
	 B2g	   2	    0	    0	    0	    2	    0
	 B3g	   0	    0	    0	    0	    0	    0
	 Au	   0	    0	    0	    0	    0	    0
	 B1u	   2	    0	    0	    0	    2	    0
	 B2u	   2	    0	    0	    0	    2	    0
	 B3u	   5	    1	    1	    0	    3	    0
	Transforming integrals...
	IWL integrals will be deleted.
	(OO|OO)...
	Presorting SO-basis two-electron integrals.
	Sorting File: SO Ints (nn|nn) nbuckets = 1
	Transforming the one-electron integrals and constructing Fock matrices
	Starting first half-transformation.
	Sorting half-transformed integrals.
	First half integral transformation complete.
	Starting second half-transformation.
	Two-electron integral transformation complete.
	(OO|OV)...
	Starting second half-transformation.
	Two-electron integral transformation complete.
	(OO|VV)...
	Starting second half-transformation.
	Two-electron integral transformation complete.
	(OV|OO)...
	Starting first half-transformation.
	Sorting half-transformed integrals.
	First half integral transformation complete.
	Starting second half-transformation.
	Two-electron integral transformation complete.
	(OV|OV)...
	Starting second half-transformation.
	Two-electron integral transformation complete.
	(OV|VV)...
	Starting second half-transformation.
	Two-electron integral transformation complete.
	(VV|OO)...
	Starting first half-transformation.
	Sorting half-transformed integrals.
	First half integral transformation complete.
	Starting second half-transformation.
	Two-electron integral transformation complete.
	(VV|OV)...
	Starting second half-transformation.
	Two-electron integral transformation complete.
	(VV|VV)...
	Starting second half-transformation.
	Two-electron integral transformation complete.
	Frozen core energy     =    -28.89050026996389

	Size of irrep 0 of <ab|cd> integrals:      0.001 (MW) /      0.009 (MB)
	Size of irrep 1 of <ab|cd> integrals:      0.001 (MW) /      0.005 (MB)
	Size of irrep 2 of <ab|cd> integrals:      0.001 (MW) /      0.005 (MB)
	Size of irrep 3 of <ab|cd> integrals:      0.000 (MW) /      0.002 (MB)
	Size of irrep 4 of <ab|cd> integrals:      0.000 (MW) /      0.002 (MB)
	Size of irrep 5 of <ab|cd> integrals:      0.001 (MW) /      0.005 (MB)
	Size of irrep 6 of <ab|cd> integrals:      0.001 (MW) /      0.005 (MB)
	Size of irrep 7 of <ab|cd> integrals:      0.001 (MW) /      0.009 (MB)
	Total:                                     0.005 (MW) /      0.041 (MB)

	Size of irrep 0 of <ia|bc> integrals:      0.000 (MW) /      0.002 (MB)
	Size of irrep 1 of <ia|bc> integrals:      0.000 (MW) /      0.001 (MB)
	Size of irrep 2 of <ia|bc> integrals:      0.000 (MW) /      0.001 (MB)
	Size of irrep 3 of <ia|bc> integrals:      0.000 (MW) /      0.000 (MB)
	Size of irrep 4 of <ia|bc> integrals:      0.000 (MW) /      0.000 (MB)
	Size of irrep 5 of <ia|bc> integrals:      0.000 (MW) /      0.001 (MB)
	Size of irrep 6 of <ia|bc> integrals:      0.000 (MW) /      0.001 (MB)
	Size of irrep 7 of <ia|bc> integrals:      0.000 (MW) /      0.002 (MB)
	Total:                                     0.001 (MW) /      0.006 (MB)

	Size of irrep 0 of tijab amplitudes:       0.000 (MW) /      0.001 (MB)
	Size of irrep 1 of tijab amplitudes:       0.000 (MW) /      0.000 (MB)
	Size of irrep 2 of tijab amplitudes:       0.000 (MW) /      0.000 (MB)
	Size of irrep 3 of tijab amplitudes:       0.000 (MW) /      0.000 (MB)
	Size of irrep 4 of tijab amplitudes:       0.000 (MW) /      0.000 (MB)
	Size of irrep 5 of tijab amplitudes:       0.000 (MW) /      0.000 (MB)
	Size of irrep 6 of tijab amplitudes:       0.000 (MW) /      0.000 (MB)
	Size of irrep 7 of tijab amplitudes:       0.000 (MW) /      0.001 (MB)
	Total:                                     0.000 (MW) /      0.001 (MB)

	Nuclear Rep. energy          =      2.22811456248421
	SCF energy                   =    -29.13325975686391
	One-electron energy          =     -3.73411577415379
	Two-electron energy          =      1.26324172476957
	Reference energy             =    -29.13325975686390

*** tstop() called on compute-0-0.local at Tue Aug 15 00:23:58 2017
Module time:
	user time   =       0.02 seconds =       0.00 minutes
	system time =       0.03 seconds =       0.00 minutes
	total time  =          1 seconds =       0.02 minutes
Total time:
	user time   =       0.22 seconds =       0.00 minutes
	system time =       0.04 seconds =       0.00 minutes
	total time  =         24 seconds =       0.40 minutes

*** tstart() called on compute-0-0.local
*** at Tue Aug 15 00:23:58 2017

            **************************
            *                        *
            *        CCENERGY        *
            *                        *
            **************************

    Nuclear Rep. energy (wfn)     =    2.228114562484212
    SCF energy          (wfn)     =  -29.133259756863907
    Reference energy    (file100) =  -29.133259756863904

    Input parameters:
    -----------------
    Wave function   =     CCSD_T
    Reference wfn   =     RHF
    Brueckner       =     No
    Memory (Mbytes) =     24000.0
    Maxiter         =     50
    R_Convergence   =     1.0e-07
    E_Convergence   =     1.0e-14
    Restart         =     Yes
    DIIS            =     Yes
    AO Basis        =     NONE
    ABCD            =     NEW
    Cache Level     =     2
    Cache Type      =     LOW
    Print Level     =     1
    Num. of threads =     1
    # Amps to Print =     10
    Print MP2 Amps? =     No
    Analyze T2 Amps =     No
    Print Pair Ener =     No
    Local CC        =     No
    SCS-MP2         =     False
    SCSN-MP2        =     False
    SCS-CCSD        =     False

MP2 correlation energy -0.0474370722883471
                Solving CC Amplitude Equations
                ------------------------------
  Iter             Energy              RMS        T1Diag      D1Diag    New D1Diag    D2Diag
  ----     ---------------------    ---------   ----------  ----------  ----------   --------
     0        -0.047437072288347    0.000e+00    0.000000    0.000000    0.000000    0.167341
     1        -0.069800449246997    1.175e-01    0.004588    0.007086    0.007086    0.251527
     2        -0.091622060697478    6.154e-02    0.012421    0.018651    0.018651    0.339663
     3        -0.091234079955057    5.735e-03    0.013602    0.020093    0.020093    0.340029
     4        -0.091642171758736    1.765e-03    0.013895    0.020466    0.020466    0.341808
     5        -0.091781921844527    4.495e-04    0.013988    0.020556    0.020556    0.342384
     6        -0.091701064767255    2.478e-04    0.013948    0.020494    0.020494    0.342057
     7        -0.091696707697669    7.851e-05    0.013936    0.020473    0.020473    0.342050
     8        -0.091711075710548    4.395e-05    0.013935    0.020474    0.020474    0.342116
     9        -0.091706522581662    1.818e-05    0.013930    0.020468    0.020468    0.342102
    10        -0.091707270352663    4.792e-06    0.013930    0.020468    0.020468    0.342106
    11        -0.091707286540882    1.641e-06    0.013930    0.020468    0.020468    0.342106
    12        -0.091707298385419    5.844e-07    0.013930    0.020467    0.020467    0.342106
    13        -0.091707289905840    1.747e-07    0.013930    0.020467    0.020467    0.342106
    14        -0.091707289127735    6.083e-08    0.013930    0.020467    0.020467    0.342106
    15        -0.091707289596755    3.392e-08    0.013930    0.020467    0.020467    0.342106
    16        -0.091707289504780    1.790e-08    0.013930    0.020467    0.020467    0.342106
    17        -0.091707289822200    7.452e-09    0.013930    0.020467    0.020467    0.342106
    18        -0.091707289832799    1.866e-09    0.013930    0.020467    0.020467    0.342106
    19        -0.091707289807201    9.650e-10    0.013930    0.020467    0.020467    0.342106
    20        -0.091707289791102    3.991e-10    0.013930    0.020467    0.020467    0.342106
    21        -0.091707289789692    8.689e-11    0.013930    0.020467    0.020467    0.342106
    22        -0.091707289790056    3.644e-11    0.013930    0.020467    0.020467    0.342106
    23        -0.091707289790359    1.577e-11    0.013930    0.020467    0.020467    0.342106
    24        -0.091707289790221    5.795e-12    0.013930    0.020467    0.020467    0.342106
    25        -0.091707289790159    2.803e-12    0.013930    0.020467    0.020467    0.342106
    26        -0.091707289790139    1.530e-12    0.013930    0.020467    0.020467    0.342106
    27        -0.091707289790168    8.344e-13    0.013930    0.020467    0.020467    0.342106
    28        -0.091707289790167    3.025e-13    0.013930    0.020467    0.020467    0.342106
    29        -0.091707289790162    1.065e-13    0.013930    0.020467    0.020467    0.342106

    Iterations converged.


    Largest TIA Amplitudes:
              0   1         0.0159286760
              1  11         0.0153381766
              1  12         0.0108627423
              0   0         0.0098319861
              1  13        -0.0081028960
              0   2         0.0026183868

    Largest TIjAb Amplitudes:
      1   1   0   0        -0.1130471562
      0   0   0   0        -0.0983167236
      1   1   3   3        -0.0940669772
      1   1   5   5        -0.0940669772
      0   1   0  11         0.0912537514
      1   0  11   0         0.0912537514
      1   1   7   7        -0.0899080166
      1   1   9   9        -0.0899080166
      0   1   7   5        -0.0896305479
      0   1   9   3        -0.0896305479

    SCF energy       (wfn)                    =  -29.133259756863907
    Reference energy (file100)                =  -29.133259756863904

    Opposite-spin MP2 correlation energy      =   -0.046742668181748
    Same-spin MP2 correlation energy          =   -0.000694404106599
    MP2 correlation energy                    =   -0.047437072288347
      * MP2 total energy                      =  -29.180696829152250

    Opposite-spin CCSD correlation energy     =   -0.090905750832617
    Same-spin CCSD correlation energy         =   -0.000801538957596
    CCSD correlation energy                   =   -0.091707289790162
      * CCSD total energy                     =  -29.224967046654065


*** tstop() called on compute-0-0.local at Tue Aug 15 00:24:17 2017
Module time:
	user time   =       0.35 seconds =       0.01 minutes
	system time =       0.46 seconds =       0.01 minutes
	total time  =         19 seconds =       0.32 minutes
Total time:
	user time   =       0.57 seconds =       0.01 minutes
	system time =       0.50 seconds =       0.01 minutes
	total time  =         43 seconds =       0.72 minutes

*** tstart() called on compute-0-0.local
*** at Tue Aug 15 00:24:17 2017

            **************************
            *                        *
            *        CCTRIPLES       *
            *                        *
            **************************


    Wave function   =    CCSD_T
    Reference wfn   =      RHF

    Nuclear Rep. energy (wfn)                =    2.228114562484212
    SCF energy          (wfn)                =  -29.133259756863907
    Reference energy    (file100)            =  -29.133259756863904
    CCSD energy         (file100)            =   -0.091707289790162
    Total CCSD energy   (file100)            =  -29.224967046654065

    Number of ijk index combinations:                4
    Memory available in words        :      3000000000
    ~Words needed per explicit thread:             108
    Number of threads for explicit ijk threading:    1

    (T) energy                                =   -0.000197210448919
      * CCSD(T) total energy                  =  -29.225164257102985


*** tstop() called on compute-0-0.local at Tue Aug 15 00:24:17 2017
Module time:
	user time   =       0.01 seconds =       0.00 minutes
	system time =       0.01 seconds =       0.00 minutes
	total time  =          0 seconds =       0.00 minutes
Total time:
	user time   =       0.58 seconds =       0.01 minutes
	system time =       0.51 seconds =       0.01 minutes
	total time  =         43 seconds =       0.72 minutes

*** Psi4 exiting successfully. Buy a developer a beer!
