    -----------------------------------------------------------------------
          Psi4: An Open-Source Ab Initio Electronic Structure Package
                              Psi4 1.0.0 Driver

                          Git: Rev {master} 6a9a71b dirty

    J. M. Turney, A. C. Simmonett, R. M. Parrish, E. G. Hohenstein,
    F. A. Evangelista, J. T. Fermann, B. J. Mintz, L. A. Burns, J. J. Wilke,
    M. L. Abrams, N. J. Russ, M. L. Leininger, C. L. Janssen, E. T. Seidl,
    W. D. Allen, H. F. Schaefer, R. A. King, E. F. Valeev, C. D. Sherrill,
    and T. D. Crawford, WIREs Comput. Mol. Sci. 2, 556-565 (2012)
    (doi: 10.1002/wcms.93)

                         Additional Contributions by
    A. E. DePrince, U. Bozkaya, A. Yu. Sokolov, D. G. A. Smith, R. Di Remigio,
    R. M. Richard, J. F. Gonthier, H. R. McAlexander, M. Saitow, and
    B. P. Pritchard
    -----------------------------------------------------------------------


    Psi4 started on: Tue Aug 15 00:32:36 2017

    Process ID:   8215
    PSI4DATADIR: /home/yhliu/psi4conda/share/psi4
    Memory level set to 256.000 MB

  ==> Input File <==

--------------------------------------------------------------------------
memory 24 Gb
molecule be2 {
0 1
Be   0.0    0.0 0.0
Be   5.4    0.0 0.0
units angstrom    
}

set basis 6-31g
set freeze_core true
set PRINT_BASIS True
set PUREAM False
set E_CONVERGENCE 1e-14
energy('ccsd(t)')
--------------------------------------------------------------------------
/home/yhliu/psi4conda/lib/python2.7/site-packages/v2rdm_casscf/v2rdm_casscf.so loaded.

  Memory set to  24.000 GiB by Python script.

*** tstart() called on compute-0-0.local
*** at Tue Aug 15 00:32:36 2017


         ---------------------------------------------------------
                                   SCF
            by Justin Turney, Rob Parrish, and Andy Simmonett
                              RHF Reference
                        1 Threads,  24000 MiB Core
         ---------------------------------------------------------

  ==> Geometry <==

    Molecular point group: d2h
    Full point group: D_inf_h

    Geometry (in Angstrom), charge = 0, multiplicity = 1:

       Center              X                  Y                   Z               Mass       
    ------------   -----------------  -----------------  -----------------  -----------------
          BE         -2.700000000000    -0.000000000000     0.000000000000     9.012182201000
          BE          2.700000000000     0.000000000000     0.000000000000     9.012182201000

  Running in d2h symmetry.

  Rotational constants: A = ************  B =      0.12829  C =      0.12829 [cm^-1]
  Rotational constants: A = ************  B =   3846.18092  C =   3846.18092 [MHz]
  Nuclear repulsion =    1.567932469896297

  Charge       = 0
  Multiplicity = 1
  Electrons    = 8
  Nalpha       = 4
  Nbeta        = 4

  ==> Algorithm <==

  SCF Algorithm Type is PK.
  DIIS enabled.
  MOM disabled.
  Fractional occupation disabled.
  Guess Type is SAD.
  Energy threshold   = 1.00e-14
  Density threshold  = 1.00e-08
  Integral threshold = 0.00e+00

  ==> Primary Basis <==

  Basis Set: 6-31G
    Number of shells: 10
    Number of basis function: 18
    Number of Cartesian functions: 18
    Spherical Harmonics?: false
    Max angular momentum: 1

  -AO BASIS SET INFORMATION:
    Name                   = 6-31G
    Total number of shells = 10
    Number of primitives   = 28
    Number of AO           = 18
    Number of SO           = 18
    Maximum AM             = 1
    Spherical Harmonics    = FALSE

  -Contraction Scheme:
    Atom   Type   All Primitives // Shells:
   ------ ------ --------------------------
       1    BE     10s 4p // 3s 2p 
       2    BE     10s 4p // 3s 2p 

  ==> AO Basis Functions <==

    [ 6-31G ]
    cartesian
    ****
   BE   1
    S   6 1.00
                      1264.58570000           0.00194480
                       189.93681000           0.01483510
                        43.15908900           0.07209060
                        12.09866300           0.23715420
                         3.80632320           0.46919870
                         1.27289030           0.35652020
    S   3 1.00
                         3.19646310          -0.11264870
                         0.74781330          -0.22950640
                         0.21996630           1.18691670
    P   3 1.00
                         3.19646310           0.05598020
                         0.74781330           0.26155060
                         0.21996630           0.79397230
    S   1 1.00
                         0.08230990           1.00000000
    P   1 1.00
                         0.08230990           1.00000000
    ****

  ==> Pre-Iterations <==

   -------------------------------------------------------
    Irrep   Nso     Nmo     Nalpha   Nbeta   Ndocc  Nsocc
   -------------------------------------------------------
     Ag         5       5       0       0       0       0
     B1g        2       2       0       0       0       0
     B2g        2       2       0       0       0       0
     B3g        0       0       0       0       0       0
     Au         0       0       0       0       0       0
     B1u        2       2       0       0       0       0
     B2u        2       2       0       0       0       0
     B3u        5       5       0       0       0       0
   -------------------------------------------------------
    Total      18      18       4       4       4       0
   -------------------------------------------------------

  ==> Integral Setup <==

  Using in-core PK algorithm.
   Calculation information:
      Number of atoms:                   2
      Number of AO shells:              10
      Number of primitives:             28
      Number of atomic orbitals:        18
      Number of basis functions:        18

      Integral cutoff                 1.00e-12
      Number of threads:                 1

  Performing in-core PK
  Using 29412 doubles for integral storage.
  We computed 1447 shell quartets total.
  Whereas there are 1540 unique shell quartets.
  ==> DiskJK: Disk-Based J/K Matrices <==

    J tasked:                  Yes
    K tasked:                  Yes
    wK tasked:                  No
    Memory (MB):             17166
    Schwarz Cutoff:          1E-12

    OpenMP threads:              1
  Minimum eigenvalue in the overlap matrix is 1.2190997484E-01.
  Using Symmetric Orthogonalization.
  SCF Guess: Superposition of Atomic Densities via on-the-fly atomic UHF.

  ==> Iterations <==

                        Total Energy        Delta E     RMS |[F,P]|

   @RHF iter   0:   -29.13358285117477   -2.91336e+01   1.12721e-03 
   @RHF iter   1:   -29.13367902091832   -9.61697e-05   2.38226e-04 
   @RHF iter   2:   -29.13368960940798   -1.05885e-05   6.25664e-05 DIIS
   @RHF iter   3:   -29.13369047832706   -8.68919e-07   4.04082e-06 DIIS
   @RHF iter   4:   -29.13369048109451   -2.76745e-09   4.66713e-07 DIIS
   @RHF iter   5:   -29.13369048112229   -2.77716e-11   1.89183e-08 DIIS
   @RHF iter   6:   -29.13369048112233   -4.26326e-14   3.15080e-09 DIIS
   @RHF iter   7:   -29.13369048112233   -3.55271e-15   1.19611e-10 DIIS

  ==> Post-Iterations <==

    Orbital Energies (a.u.)
    -----------------------

    Doubly Occupied:                                                      

       1B3u   -4.707179     1Ag    -4.707177     2Ag    -0.304030  
       2B3u   -0.298676  

    Virtual:                                                              

       3Ag     0.067080     1B1u    0.079650     1B2u    0.079650  
       1B2g    0.085101     1B1g    0.085101     3B3u    0.099289  
       4Ag     0.410888     4B3u    0.445518     5Ag     0.454968  
       2B1u    0.458360     2B2u    0.458360     2B2g    0.471611  
       2B1g    0.471611     5B3u    0.525225  

    Final Occupation by Irrep:
             Ag   B1g   B2g   B3g    Au   B1u   B2u   B3u 
    DOCC [     2,    0,    0,    0,    0,    0,    0,    2 ]

  Energy converged.

  @RHF Final Energy:   -29.13369048112233

   => Energetics <=

    Nuclear Repulsion Energy =              1.5679324698962971
    One-Electron Energy =                 -41.3691220151462176
    Two-Electron Energy =                  10.6674990641275844
    DFT Exchange-Correlation Energy =       0.0000000000000000
    Empirical Dispersion Energy =           0.0000000000000000
    PCM Polarization Energy =               0.0000000000000000
    EFP Energy =                            0.0000000000000000
    Total Energy =                        -29.1336904811223363


  Saving occupied orbitals to File 180.

*** tstop() called on compute-0-0.local at Tue Aug 15 00:32:37 2017
Module time:
	user time   =       0.20 seconds =       0.00 minutes
	system time =       0.01 seconds =       0.00 minutes
	total time  =          1 seconds =       0.02 minutes
Total time:
	user time   =       0.20 seconds =       0.00 minutes
	system time =       0.01 seconds =       0.00 minutes
	total time  =          1 seconds =       0.02 minutes


Properties will be evaluated at   0.000000,   0.000000,   0.000000 Bohr

Properties computed using the SCF density matrix

  Nuclear Dipole Moment: (a.u.)
     X:     0.0000      Y:     0.0000      Z:     0.0000

  Electronic Dipole Moment: (a.u.)
     X:     0.0000      Y:     0.0000      Z:     0.0000

  Dipole Moment: (a.u.)
     X:     0.0000      Y:     0.0000      Z:     0.0000     Total:     0.0000

  Dipole Moment: (Debye)
     X:     0.0000      Y:     0.0000      Z:     0.0000     Total:     0.0000

 MINTS: Wrapper to libmints.
   by Justin Turney

   Calculation information:
      Number of atoms:                   2
      Number of AO shells:              10
      Number of SO shells:               5
      Number of primitives:             28
      Number of atomic orbitals:        18
      Number of basis functions:        18

      Number of irreps:                  8
      Integral cutoff                 0.00e+00
      Number of functions per irrep: [   5    2    2    0    0    2    2    5 ]

 OEINTS: Overlap, kinetic, potential, dipole, and quadrupole integrals
         stored in file 35.

      Computing two-electron integrals...done
      Computed 2376 non-zero two-electron integrals.
        Stored in file 33.


*** tstart() called on compute-0-0.local
*** at Tue Aug 15 00:32:37 2017


	Wfn Parameters:
	--------------------
	Wavefunction         = CCSD_T
	Number of irreps     = 8
	Number of MOs        = 18
	Number of active MOs = 16
	AO-Basis             = NONE
	Semicanonical        = false
	Reference            = RHF
	Print Level          = 1

	IRREP	# MOs	# FZDC	# DOCC	# SOCC	# VIRT	# FZVR
	-----	-----	------	------	------	------	------
	 Ag	   5	    1	    1	    0	    3	    0
	 B1g	   2	    0	    0	    0	    2	    0
	 B2g	   2	    0	    0	    0	    2	    0
	 B3g	   0	    0	    0	    0	    0	    0
	 Au	   0	    0	    0	    0	    0	    0
	 B1u	   2	    0	    0	    0	    2	    0
	 B2u	   2	    0	    0	    0	    2	    0
	 B3u	   5	    1	    1	    0	    3	    0
	Transforming integrals...
	IWL integrals will be deleted.
	(OO|OO)...
	Presorting SO-basis two-electron integrals.
	Sorting File: SO Ints (nn|nn) nbuckets = 1
	Transforming the one-electron integrals and constructing Fock matrices
	Starting first half-transformation.
	Sorting half-transformed integrals.
	First half integral transformation complete.
	Starting second half-transformation.
	Two-electron integral transformation complete.
	(OO|OV)...
	Starting second half-transformation.
	Two-electron integral transformation complete.
	(OO|VV)...
	Starting second half-transformation.
	Two-electron integral transformation complete.
	(OV|OO)...
	Starting first half-transformation.
	Sorting half-transformed integrals.
	First half integral transformation complete.
	Starting second half-transformation.
	Two-electron integral transformation complete.
	(OV|OV)...
	Starting second half-transformation.
	Two-electron integral transformation complete.
	(OV|VV)...
	Starting second half-transformation.
	Two-electron integral transformation complete.
	(VV|OO)...
	Starting first half-transformation.
	Sorting half-transformed integrals.
	First half integral transformation complete.
	Starting second half-transformation.
	Two-electron integral transformation complete.
	(VV|OV)...
	Starting second half-transformation.
	Two-electron integral transformation complete.
	(VV|VV)...
	Starting second half-transformation.
	Two-electron integral transformation complete.
	Frozen core energy     =    -28.39535433035278

	Size of irrep 0 of <ab|cd> integrals:      0.001 (MW) /      0.009 (MB)
	Size of irrep 1 of <ab|cd> integrals:      0.001 (MW) /      0.005 (MB)
	Size of irrep 2 of <ab|cd> integrals:      0.001 (MW) /      0.005 (MB)
	Size of irrep 3 of <ab|cd> integrals:      0.000 (MW) /      0.002 (MB)
	Size of irrep 4 of <ab|cd> integrals:      0.000 (MW) /      0.002 (MB)
	Size of irrep 5 of <ab|cd> integrals:      0.001 (MW) /      0.005 (MB)
	Size of irrep 6 of <ab|cd> integrals:      0.001 (MW) /      0.005 (MB)
	Size of irrep 7 of <ab|cd> integrals:      0.001 (MW) /      0.009 (MB)
	Total:                                     0.005 (MW) /      0.041 (MB)

	Size of irrep 0 of <ia|bc> integrals:      0.000 (MW) /      0.002 (MB)
	Size of irrep 1 of <ia|bc> integrals:      0.000 (MW) /      0.001 (MB)
	Size of irrep 2 of <ia|bc> integrals:      0.000 (MW) /      0.001 (MB)
	Size of irrep 3 of <ia|bc> integrals:      0.000 (MW) /      0.000 (MB)
	Size of irrep 4 of <ia|bc> integrals:      0.000 (MW) /      0.000 (MB)
	Size of irrep 5 of <ia|bc> integrals:      0.000 (MW) /      0.001 (MB)
	Size of irrep 6 of <ia|bc> integrals:      0.000 (MW) /      0.001 (MB)
	Size of irrep 7 of <ia|bc> integrals:      0.000 (MW) /      0.002 (MB)
	Total:                                     0.001 (MW) /      0.006 (MB)

	Size of irrep 0 of tijab amplitudes:       0.000 (MW) /      0.001 (MB)
	Size of irrep 1 of tijab amplitudes:       0.000 (MW) /      0.000 (MB)
	Size of irrep 2 of tijab amplitudes:       0.000 (MW) /      0.000 (MB)
	Size of irrep 3 of tijab amplitudes:       0.000 (MW) /      0.000 (MB)
	Size of irrep 4 of tijab amplitudes:       0.000 (MW) /      0.000 (MB)
	Size of irrep 5 of tijab amplitudes:       0.000 (MW) /      0.000 (MB)
	Size of irrep 6 of tijab amplitudes:       0.000 (MW) /      0.000 (MB)
	Size of irrep 7 of tijab amplitudes:       0.000 (MW) /      0.001 (MB)
	Total:                                     0.000 (MW) /      0.001 (MB)

	Nuclear Rep. energy          =      1.56793246989630
	SCF energy                   =    -29.13369048112233
	One-electron energy          =     -3.40712548866506
	Two-electron energy          =      1.10085686799924
	Reference energy             =    -29.13369048112230

*** tstop() called on compute-0-0.local at Tue Aug 15 00:32:37 2017
Module time:
	user time   =       0.01 seconds =       0.00 minutes
	system time =       0.04 seconds =       0.00 minutes
	total time  =          0 seconds =       0.00 minutes
Total time:
	user time   =       0.25 seconds =       0.00 minutes
	system time =       0.05 seconds =       0.00 minutes
	total time  =          1 seconds =       0.02 minutes

*** tstart() called on compute-0-0.local
*** at Tue Aug 15 00:32:37 2017

            **************************
            *                        *
            *        CCENERGY        *
            *                        *
            **************************

    Nuclear Rep. energy (wfn)     =    1.567932469896297
    SCF energy          (wfn)     =  -29.133690481122333
    Reference energy    (file100) =  -29.133690481122304

    Input parameters:
    -----------------
    Wave function   =     CCSD_T
    Reference wfn   =     RHF
    Brueckner       =     No
    Memory (Mbytes) =     24000.0
    Maxiter         =     50
    R_Convergence   =     1.0e-07
    E_Convergence   =     1.0e-14
    Restart         =     Yes
    DIIS            =     Yes
    AO Basis        =     NONE
    ABCD            =     NEW
    Cache Level     =     2
    Cache Type      =     LOW
    Print Level     =     1
    Num. of threads =     1
    # Amps to Print =     10
    Print MP2 Amps? =     No
    Analyze T2 Amps =     No
    Print Pair Ener =     No
    Local CC        =     No
    SCS-MP2         =     False
    SCSN-MP2        =     False
    SCS-CCSD        =     False

MP2 correlation energy -0.0466931789709952
                Solving CC Amplitude Equations
                ------------------------------
  Iter             Energy              RMS        T1Diag      D1Diag    New D1Diag    D2Diag
  ----     ---------------------    ---------   ----------  ----------  ----------   --------
     0        -0.046693178970995    0.000e+00    0.000000    0.000000    0.000000    0.162946
     1        -0.069312304977616    1.192e-01    0.004437    0.006394    0.006394    0.246060
     2        -0.092174639313006    6.267e-02    0.011358    0.016570    0.016570    0.334414
     3        -0.091508598357423    4.271e-03    0.011906    0.017475    0.017475    0.333103
     4        -0.091978376784960    1.303e-03    0.012044    0.017694    0.017694    0.334936
     5        -0.091988833679743    1.181e-04    0.012042    0.017697    0.017697    0.334977
     6        -0.091957673650244    9.312e-05    0.012031    0.017681    0.017681    0.334857
     7        -0.091956094927692    5.847e-06    0.012030    0.017680    0.017680    0.334852
     8        -0.091956943191202    3.944e-06    0.012030    0.017680    0.017680    0.334855
     9        -0.091957236438352    1.172e-06    0.012030    0.017680    0.017680    0.334856
    10        -0.091957276576448    3.680e-07    0.012030    0.017680    0.017680    0.334857
    11        -0.091957274455906    1.730e-07    0.012030    0.017680    0.017680    0.334857
    12        -0.091957276071255    7.565e-08    0.012030    0.017680    0.017680    0.334857
    13        -0.091957277405158    3.829e-08    0.012030    0.017680    0.017680    0.334857
    14        -0.091957277301381    1.511e-08    0.012030    0.017680    0.017680    0.334857
    15        -0.091957276960142    5.837e-09    0.012030    0.017680    0.017680    0.334857
    16        -0.091957276871386    1.317e-09    0.012030    0.017680    0.017680    0.334857
    17        -0.091957276837812    4.556e-10    0.012030    0.017680    0.017680    0.334857
    18        -0.091957276847220    1.544e-10    0.012030    0.017680    0.017680    0.334857
    19        -0.091957276852763    3.696e-11    0.012030    0.017680    0.017680    0.334857
    20        -0.091957276854535    1.395e-11    0.012030    0.017680    0.017680    0.334857
    21        -0.091957276854731    6.480e-12    0.012030    0.017680    0.017680    0.334857
    22        -0.091957276854746    3.691e-12    0.012030    0.017680    0.017680    0.334857
    23        -0.091957276854732    2.016e-12    0.012030    0.017680    0.017680    0.334857
    24        -0.091957276854744    1.037e-12    0.012030    0.017680    0.017680    0.334857
    25        -0.091957276854748    5.449e-13    0.012030    0.017680    0.017680    0.334857
    26        -0.091957276854744    2.048e-13    0.012030    0.017680    0.017680    0.334857

    Iterations converged.


    Largest TIA Amplitudes:
              0   1         0.0147700410
              1  12        -0.0144599227
              0   2        -0.0088194169
              1  13        -0.0062823650
              1  11         0.0042082863
              0   0         0.0040792690

    Largest TIjAb Amplitudes:
      0   0   0   0        -0.0892982457
      0   1   0  11         0.0889529925
      1   0  11   0         0.0889529925
      1   1  11  11        -0.0888803533
      1   1   3   3        -0.0886964324
      1   1   5   5        -0.0886964324
      0   1   7   5        -0.0875649944
      0   1   9   3        -0.0875649944
      1   0   3   9        -0.0875649944
      1   0   5   7        -0.0875649944

    SCF energy       (wfn)                    =  -29.133690481122333
    Reference energy (file100)                =  -29.133690481122304

    Opposite-spin MP2 correlation energy      =   -0.046599219196049
    Same-spin MP2 correlation energy          =   -0.000093959774946
    MP2 correlation energy                    =   -0.046693178970995
      * MP2 total energy                      =  -29.180383660093298

    Opposite-spin CCSD correlation energy     =   -0.091860108154003
    Same-spin CCSD correlation energy         =   -0.000097168699329
    CCSD correlation energy                   =   -0.091957276854744
      * CCSD total energy                     =  -29.225647757977047


*** tstop() called on compute-0-0.local at Tue Aug 15 00:32:41 2017
Module time:
	user time   =       0.28 seconds =       0.00 minutes
	system time =       0.33 seconds =       0.01 minutes
	total time  =          4 seconds =       0.07 minutes
Total time:
	user time   =       0.53 seconds =       0.01 minutes
	system time =       0.38 seconds =       0.01 minutes
	total time  =          5 seconds =       0.08 minutes

*** tstart() called on compute-0-0.local
*** at Tue Aug 15 00:32:41 2017

            **************************
            *                        *
            *        CCTRIPLES       *
            *                        *
            **************************


    Wave function   =    CCSD_T
    Reference wfn   =      RHF

    Nuclear Rep. energy (wfn)                =    1.567932469896297
    SCF energy          (wfn)                =  -29.133690481122333
    Reference energy    (file100)            =  -29.133690481122304
    CCSD energy         (file100)            =   -0.091957276854744
    Total CCSD energy   (file100)            =  -29.225647757977047

    Number of ijk index combinations:                4
    Memory available in words        :      3000000000
    ~Words needed per explicit thread:             108
    Number of threads for explicit ijk threading:    1

    (T) energy                                =   -0.000013366206043
      * CCSD(T) total energy                  =  -29.225661124183091


*** tstop() called on compute-0-0.local at Tue Aug 15 00:32:41 2017
Module time:
	user time   =       0.01 seconds =       0.00 minutes
	system time =       0.01 seconds =       0.00 minutes
	total time  =          0 seconds =       0.00 minutes
Total time:
	user time   =       0.54 seconds =       0.01 minutes
	system time =       0.39 seconds =       0.01 minutes
	total time  =          5 seconds =       0.08 minutes

*** Psi4 exiting successfully. Buy a developer a beer!
