    -----------------------------------------------------------------------
          Psi4: An Open-Source Ab Initio Electronic Structure Package
                              Psi4 1.0.0 Driver

                          Git: Rev {master} 6a9a71b dirty

    J. M. Turney, A. C. Simmonett, R. M. Parrish, E. G. Hohenstein,
    F. A. Evangelista, J. T. Fermann, B. J. Mintz, L. A. Burns, J. J. Wilke,
    M. L. Abrams, N. J. Russ, M. L. Leininger, C. L. Janssen, E. T. Seidl,
    W. D. Allen, H. F. Schaefer, R. A. King, E. F. Valeev, C. D. Sherrill,
    and T. D. Crawford, WIREs Comput. Mol. Sci. 2, 556-565 (2012)
    (doi: 10.1002/wcms.93)

                         Additional Contributions by
    A. E. DePrince, U. Bozkaya, A. Yu. Sokolov, D. G. A. Smith, R. Di Remigio,
    R. M. Richard, J. F. Gonthier, H. R. McAlexander, M. Saitow, and
    B. P. Pritchard
    -----------------------------------------------------------------------


    Psi4 started on: Tue Aug 15 00:31:32 2017

    Process ID:   8190
    PSI4DATADIR: /home/yhliu/psi4conda/share/psi4
    Memory level set to 256.000 MB

  ==> Input File <==

--------------------------------------------------------------------------
memory 24 Gb
molecule be2 {
0 1
Be   0.0    0.0 0.0
Be   5.1    0.0 0.0
units angstrom    
}

set basis 6-31g
set freeze_core true
set PRINT_BASIS True
set PUREAM False
set E_CONVERGENCE 1e-14
energy('ccsd(t)')
--------------------------------------------------------------------------
/home/yhliu/psi4conda/lib/python2.7/site-packages/v2rdm_casscf/v2rdm_casscf.so loaded.

  Memory set to  24.000 GiB by Python script.

*** tstart() called on compute-0-0.local
*** at Tue Aug 15 00:31:33 2017


         ---------------------------------------------------------
                                   SCF
            by Justin Turney, Rob Parrish, and Andy Simmonett
                              RHF Reference
                        1 Threads,  24000 MiB Core
         ---------------------------------------------------------

  ==> Geometry <==

    Molecular point group: d2h
    Full point group: D_inf_h

    Geometry (in Angstrom), charge = 0, multiplicity = 1:

       Center              X                  Y                   Z               Mass       
    ------------   -----------------  -----------------  -----------------  -----------------
          BE         -2.550000000000    -0.000000000000     0.000000000000     9.012182201000
          BE          2.550000000000     0.000000000000     0.000000000000     9.012182201000

  Running in d2h symmetry.

  Rotational constants: A = ************  B =      0.14383  C =      0.14383 [cm^-1]
  Rotational constants: A = ************  B =   4311.98137  C =   4311.98137 [MHz]
  Nuclear repulsion =    1.660163791654902

  Charge       = 0
  Multiplicity = 1
  Electrons    = 8
  Nalpha       = 4
  Nbeta        = 4

  ==> Algorithm <==

  SCF Algorithm Type is PK.
  DIIS enabled.
  MOM disabled.
  Fractional occupation disabled.
  Guess Type is SAD.
  Energy threshold   = 1.00e-14
  Density threshold  = 1.00e-08
  Integral threshold = 0.00e+00

  ==> Primary Basis <==

  Basis Set: 6-31G
    Number of shells: 10
    Number of basis function: 18
    Number of Cartesian functions: 18
    Spherical Harmonics?: false
    Max angular momentum: 1

  -AO BASIS SET INFORMATION:
    Name                   = 6-31G
    Total number of shells = 10
    Number of primitives   = 28
    Number of AO           = 18
    Number of SO           = 18
    Maximum AM             = 1
    Spherical Harmonics    = FALSE

  -Contraction Scheme:
    Atom   Type   All Primitives // Shells:
   ------ ------ --------------------------
       1    BE     10s 4p // 3s 2p 
       2    BE     10s 4p // 3s 2p 

  ==> AO Basis Functions <==

    [ 6-31G ]
    cartesian
    ****
   BE   1
    S   6 1.00
                      1264.58570000           0.00194480
                       189.93681000           0.01483510
                        43.15908900           0.07209060
                        12.09866300           0.23715420
                         3.80632320           0.46919870
                         1.27289030           0.35652020
    S   3 1.00
                         3.19646310          -0.11264870
                         0.74781330          -0.22950640
                         0.21996630           1.18691670
    P   3 1.00
                         3.19646310           0.05598020
                         0.74781330           0.26155060
                         0.21996630           0.79397230
    S   1 1.00
                         0.08230990           1.00000000
    P   1 1.00
                         0.08230990           1.00000000
    ****

  ==> Pre-Iterations <==

   -------------------------------------------------------
    Irrep   Nso     Nmo     Nalpha   Nbeta   Ndocc  Nsocc
   -------------------------------------------------------
     Ag         5       5       0       0       0       0
     B1g        2       2       0       0       0       0
     B2g        2       2       0       0       0       0
     B3g        0       0       0       0       0       0
     Au         0       0       0       0       0       0
     B1u        2       2       0       0       0       0
     B2u        2       2       0       0       0       0
     B3u        5       5       0       0       0       0
   -------------------------------------------------------
    Total      18      18       4       4       4       0
   -------------------------------------------------------

  ==> Integral Setup <==

  Using in-core PK algorithm.
   Calculation information:
      Number of atoms:                   2
      Number of AO shells:              10
      Number of primitives:             28
      Number of atomic orbitals:        18
      Number of basis functions:        18

      Integral cutoff                 1.00e-12
      Number of threads:                 1

  Performing in-core PK
  Using 29412 doubles for integral storage.
  We computed 1469 shell quartets total.
  Whereas there are 1540 unique shell quartets.
  ==> DiskJK: Disk-Based J/K Matrices <==

    J tasked:                  Yes
    K tasked:                  Yes
    wK tasked:                  No
    Memory (MB):             17166
    Schwarz Cutoff:          1E-12

    OpenMP threads:              1
  Minimum eigenvalue in the overlap matrix is 1.1785891626E-01.
  Using Symmetric Orthogonalization.
  SCF Guess: Superposition of Atomic Densities via on-the-fly atomic UHF.

  ==> Iterations <==

                        Total Energy        Delta E     RMS |[F,P]|

   @RHF iter   0:   -29.13367399935725   -2.91337e+01   1.39157e-03 
   @RHF iter   1:   -29.13373402485025   -6.00255e-05   3.05063e-04 
   @RHF iter   2:   -29.13375187584364   -1.78510e-05   8.56157e-05 DIIS
   @RHF iter   3:   -29.13375355547495   -1.67963e-06   5.73508e-06 DIIS
   @RHF iter   4:   -29.13375356103344   -5.55848e-09   6.49004e-07 DIIS
   @RHF iter   5:   -29.13375356108562   -5.21823e-11   2.97672e-08 DIIS
   @RHF iter   6:   -29.13375356108571   -9.23706e-14   4.47940e-09 DIIS
   @RHF iter   7:   -29.13375356108573   -2.13163e-14   1.57781e-10 DIIS
   @RHF iter   8:   -29.13375356108572    1.06581e-14   2.17189e-11 DIIS
   @RHF iter   9:   -29.13375356108574   -1.42109e-14   1.53299e-12 DIIS
   @RHF iter  10:   -29.13375356108573    3.55271e-15   1.74307e-13 DIIS

  ==> Post-Iterations <==

    Orbital Energies (a.u.)
    -----------------------

    Doubly Occupied:                                                      

       1B3u   -4.707310     1Ag    -4.707308     2Ag    -0.305398  
       2B3u   -0.297357  

    Virtual:                                                              

       3Ag     0.064045     1B1u    0.078437     1B2u    0.078437  
       1B1g    0.086286     1B2g    0.086286     3B3u    0.104311  
       4Ag     0.408482     4B3u    0.446120     2B1u    0.456258  
       2B2u    0.456258     5Ag     0.457317     2B1g    0.473981  
       2B2g    0.473981     5B3u    0.541478  

    Final Occupation by Irrep:
             Ag   B1g   B2g   B3g    Au   B1u   B2u   B3u 
    DOCC [     2,    0,    0,    0,    0,    0,    0,    2 ]

  Energy converged.

  @RHF Final Energy:   -29.13375356108573

   => Energetics <=

    Nuclear Repulsion Energy =              1.6601637916549019
    One-Electron Energy =                 -41.5530889172044553
    Two-Electron Energy =                  10.7591715644638235
    DFT Exchange-Correlation Energy =       0.0000000000000000
    Empirical Dispersion Energy =           0.0000000000000000
    PCM Polarization Energy =               0.0000000000000000
    EFP Energy =                            0.0000000000000000
    Total Energy =                        -29.1337535610857294


  Saving occupied orbitals to File 180.

*** tstop() called on compute-0-0.local at Tue Aug 15 00:31:33 2017
Module time:
	user time   =       0.20 seconds =       0.00 minutes
	system time =       0.01 seconds =       0.00 minutes
	total time  =          0 seconds =       0.00 minutes
Total time:
	user time   =       0.20 seconds =       0.00 minutes
	system time =       0.01 seconds =       0.00 minutes
	total time  =          0 seconds =       0.00 minutes


Properties will be evaluated at   0.000000,   0.000000,   0.000000 Bohr

Properties computed using the SCF density matrix

  Nuclear Dipole Moment: (a.u.)
     X:     0.0000      Y:     0.0000      Z:     0.0000

  Electronic Dipole Moment: (a.u.)
     X:     0.0000      Y:     0.0000      Z:     0.0000

  Dipole Moment: (a.u.)
     X:     0.0000      Y:     0.0000      Z:     0.0000     Total:     0.0000

  Dipole Moment: (Debye)
     X:     0.0000      Y:     0.0000      Z:     0.0000     Total:     0.0000

 MINTS: Wrapper to libmints.
   by Justin Turney

   Calculation information:
      Number of atoms:                   2
      Number of AO shells:              10
      Number of SO shells:               5
      Number of primitives:             28
      Number of atomic orbitals:        18
      Number of basis functions:        18

      Number of irreps:                  8
      Integral cutoff                 0.00e+00
      Number of functions per irrep: [   5    2    2    0    0    2    2    5 ]

 OEINTS: Overlap, kinetic, potential, dipole, and quadrupole integrals
         stored in file 35.

      Computing two-electron integrals...done
      Computed 2376 non-zero two-electron integrals.
        Stored in file 33.


*** tstart() called on compute-0-0.local
*** at Tue Aug 15 00:31:33 2017


	Wfn Parameters:
	--------------------
	Wavefunction         = CCSD_T
	Number of irreps     = 8
	Number of MOs        = 18
	Number of active MOs = 16
	AO-Basis             = NONE
	Semicanonical        = false
	Reference            = RHF
	Print Level          = 1

	IRREP	# MOs	# FZDC	# DOCC	# SOCC	# VIRT	# FZVR
	-----	-----	------	------	------	------	------
	 Ag	   5	    1	    1	    0	    3	    0
	 B1g	   2	    0	    0	    0	    2	    0
	 B2g	   2	    0	    0	    0	    2	    0
	 B3g	   0	    0	    0	    0	    0	    0
	 Au	   0	    0	    0	    0	    0	    0
	 B1u	   2	    0	    0	    0	    2	    0
	 B2u	   2	    0	    0	    0	    2	    0
	 B3u	   5	    1	    1	    0	    3	    0
	Transforming integrals...
	IWL integrals will be deleted.
	(OO|OO)...
	Presorting SO-basis two-electron integrals.
	Sorting File: SO Ints (nn|nn) nbuckets = 1
	Transforming the one-electron integrals and constructing Fock matrices
	Starting first half-transformation.
	Sorting half-transformed integrals.
	First half integral transformation complete.
	Starting second half-transformation.
	Two-electron integral transformation complete.
	(OO|OV)...
	Starting second half-transformation.
	Two-electron integral transformation complete.
	(OO|VV)...
	Starting second half-transformation.
	Two-electron integral transformation complete.
	(OV|OO)...
	Starting first half-transformation.
	Sorting half-transformed integrals.
	First half integral transformation complete.
	Starting second half-transformation.
	Two-electron integral transformation complete.
	(OV|OV)...
	Starting second half-transformation.
	Two-electron integral transformation complete.
	(OV|VV)...
	Starting second half-transformation.
	Two-electron integral transformation complete.
	(VV|OO)...
	Starting first half-transformation.
	Sorting half-transformed integrals.
	First half integral transformation complete.
	Starting second half-transformation.
	Two-electron integral transformation complete.
	(VV|OV)...
	Starting second half-transformation.
	Two-electron integral transformation complete.
	(VV|VV)...
	Starting second half-transformation.
	Two-electron integral transformation complete.
	Frozen core energy     =    -28.46452854177743

	Size of irrep 0 of <ab|cd> integrals:      0.001 (MW) /      0.009 (MB)
	Size of irrep 1 of <ab|cd> integrals:      0.001 (MW) /      0.005 (MB)
	Size of irrep 2 of <ab|cd> integrals:      0.001 (MW) /      0.005 (MB)
	Size of irrep 3 of <ab|cd> integrals:      0.000 (MW) /      0.002 (MB)
	Size of irrep 4 of <ab|cd> integrals:      0.000 (MW) /      0.002 (MB)
	Size of irrep 5 of <ab|cd> integrals:      0.001 (MW) /      0.005 (MB)
	Size of irrep 6 of <ab|cd> integrals:      0.001 (MW) /      0.005 (MB)
	Size of irrep 7 of <ab|cd> integrals:      0.001 (MW) /      0.009 (MB)
	Total:                                     0.005 (MW) /      0.041 (MB)

	Size of irrep 0 of <ia|bc> integrals:      0.000 (MW) /      0.002 (MB)
	Size of irrep 1 of <ia|bc> integrals:      0.000 (MW) /      0.001 (MB)
	Size of irrep 2 of <ia|bc> integrals:      0.000 (MW) /      0.001 (MB)
	Size of irrep 3 of <ia|bc> integrals:      0.000 (MW) /      0.000 (MB)
	Size of irrep 4 of <ia|bc> integrals:      0.000 (MW) /      0.000 (MB)
	Size of irrep 5 of <ia|bc> integrals:      0.000 (MW) /      0.001 (MB)
	Size of irrep 6 of <ia|bc> integrals:      0.000 (MW) /      0.001 (MB)
	Size of irrep 7 of <ia|bc> integrals:      0.000 (MW) /      0.002 (MB)
	Total:                                     0.001 (MW) /      0.006 (MB)

	Size of irrep 0 of tijab amplitudes:       0.000 (MW) /      0.001 (MB)
	Size of irrep 1 of tijab amplitudes:       0.000 (MW) /      0.000 (MB)
	Size of irrep 2 of tijab amplitudes:       0.000 (MW) /      0.000 (MB)
	Size of irrep 3 of tijab amplitudes:       0.000 (MW) /      0.000 (MB)
	Size of irrep 4 of tijab amplitudes:       0.000 (MW) /      0.000 (MB)
	Size of irrep 5 of tijab amplitudes:       0.000 (MW) /      0.000 (MB)
	Size of irrep 6 of tijab amplitudes:       0.000 (MW) /      0.000 (MB)
	Size of irrep 7 of tijab amplitudes:       0.000 (MW) /      0.001 (MB)
	Total:                                     0.000 (MW) /      0.001 (MB)

	Nuclear Rep. energy          =      1.66016379165490
	SCF energy                   =    -29.13375356108573
	One-electron energy          =     -3.45326748532418
	Two-electron energy          =      1.12387867435932
	Reference energy             =    -29.13375356108738

*** tstop() called on compute-0-0.local at Tue Aug 15 00:31:34 2017
Module time:
	user time   =       0.02 seconds =       0.00 minutes
	system time =       0.02 seconds =       0.00 minutes
	total time  =          1 seconds =       0.02 minutes
Total time:
	user time   =       0.26 seconds =       0.00 minutes
	system time =       0.03 seconds =       0.00 minutes
	total time  =          1 seconds =       0.02 minutes

*** tstart() called on compute-0-0.local
*** at Tue Aug 15 00:31:34 2017

            **************************
            *                        *
            *        CCENERGY        *
            *                        *
            **************************

    Nuclear Rep. energy (wfn)     =    1.660163791654902
    SCF energy          (wfn)     =  -29.133753561085733
    Reference energy    (file100) =  -29.133753561087381

    Input parameters:
    -----------------
    Wave function   =     CCSD_T
    Reference wfn   =     RHF
    Brueckner       =     No
    Memory (Mbytes) =     24000.0
    Maxiter         =     50
    R_Convergence   =     1.0e-07
    E_Convergence   =     1.0e-14
    Restart         =     Yes
    DIIS            =     Yes
    AO Basis        =     NONE
    ABCD            =     NEW
    Cache Level     =     2
    Cache Type      =     LOW
    Print Level     =     1
    Num. of threads =     1
    # Amps to Print =     10
    Print MP2 Amps? =     No
    Analyze T2 Amps =     No
    Print Pair Ener =     No
    Local CC        =     No
    SCS-MP2         =     False
    SCSN-MP2        =     False
    SCS-CCSD        =     False

MP2 correlation energy -0.0467540430012187
                Solving CC Amplitude Equations
                ------------------------------
  Iter             Energy              RMS        T1Diag      D1Diag    New D1Diag    D2Diag
  ----     ---------------------    ---------   ----------  ----------  ----------   --------
     0        -0.046754043001219    0.000e+00    0.000000    0.000000    0.000000    0.163350
     1        -0.069357898946260    1.190e-01    0.004457    0.006416    0.006416    0.246568
     2        -0.092136226545910    6.257e-02    0.011466    0.016785    0.016785    0.334855
     3        -0.091491999244395    4.383e-03    0.012075    0.017826    0.017826    0.333644
     4        -0.091954007076974    1.332e-03    0.012226    0.018070    0.018070    0.335451
     5        -0.091989973089874    1.381e-04    0.012236    0.018095    0.018095    0.335589
     6        -0.091945051763308    1.317e-04    0.012220    0.018074    0.018074    0.335415
     7        -0.091942589221100    7.266e-06    0.012219    0.018073    0.018073    0.335405
     8        -0.091943718155222    4.915e-06    0.012219    0.018073    0.018073    0.335410
     9        -0.091944077454583    1.322e-06    0.012219    0.018073    0.018073    0.335411
    10        -0.091944101867420    4.287e-07    0.012219    0.018073    0.018073    0.335411
    11        -0.091944098384762    2.405e-07    0.012219    0.018073    0.018073    0.335411
    12        -0.091944100606014    9.612e-08    0.012219    0.018073    0.018073    0.335411
    13        -0.091944102025141    3.442e-08    0.012219    0.018073    0.018073    0.335411
    14        -0.091944101850611    1.170e-08    0.012219    0.018073    0.018073    0.335411
    15        -0.091944101591271    5.572e-09    0.012219    0.018073    0.018073    0.335411
    16        -0.091944101549752    1.370e-09    0.012219    0.018073    0.018073    0.335411
    17        -0.091944101541053    4.744e-10    0.012219    0.018073    0.018073    0.335411
    18        -0.091944101557604    1.402e-10    0.012219    0.018073    0.018073    0.335411
    19        -0.091944101564558    4.364e-11    0.012219    0.018073    0.018073    0.335411
    20        -0.091944101565774    1.499e-11    0.012219    0.018073    0.018073    0.335411
    21        -0.091944101565814    7.958e-12    0.012219    0.018073    0.018073    0.335411
    22        -0.091944101565774    4.693e-12    0.012219    0.018073    0.018073    0.335411
    23        -0.091944101565832    2.290e-12    0.012219    0.018073    0.018073    0.335411
    24        -0.091944101565870    9.143e-13    0.012219    0.018073    0.018073    0.335411
    25        -0.091944101565889    4.329e-13    0.012219    0.018073    0.018073    0.335411
    26        -0.091944101565886    1.531e-13    0.012219    0.018073    0.018073    0.335411
    27        -0.091944101565884    6.304e-14    0.012219    0.018073    0.018073    0.335411

    Iterations converged.


    Largest TIA Amplitudes:
              0   1         0.0152742350
              1  12        -0.0139047977
              0   2        -0.0080729067
              1  13        -0.0066843747
              1  11         0.0057083966
              0   0         0.0053066901

    Largest TIjAb Amplitudes:
      0   0   0   0        -0.0909048483
      0   1   0  11         0.0894999106
      1   0  11   0         0.0894999106
      1   1   3   3        -0.0894011785
      1   1   5   5        -0.0894011785
      1   1  11  11        -0.0883654012
      0   1   7   5        -0.0878007088
      0   1   9   3        -0.0878007088
      1   0   3   9        -0.0878007088
      1   0   5   7        -0.0878007088

    SCF energy       (wfn)                    =  -29.133753561085733
    Reference energy (file100)                =  -29.133753561087381

    Opposite-spin MP2 correlation energy      =   -0.046619420562584
    Same-spin MP2 correlation energy          =   -0.000134622438635
    MP2 correlation energy                    =   -0.046754043001219
      * MP2 total energy                      =  -29.180507604088600

    Opposite-spin CCSD correlation energy     =   -0.091804150531912
    Same-spin CCSD correlation energy         =   -0.000139951033969
    CCSD correlation energy                   =   -0.091944101565884
      * CCSD total energy                     =  -29.225697662653264


*** tstop() called on compute-0-0.local at Tue Aug 15 00:32:01 2017
Module time:
	user time   =       0.31 seconds =       0.01 minutes
	system time =       0.40 seconds =       0.01 minutes
	total time  =         27 seconds =       0.45 minutes
Total time:
	user time   =       0.57 seconds =       0.01 minutes
	system time =       0.43 seconds =       0.01 minutes
	total time  =         28 seconds =       0.47 minutes

*** tstart() called on compute-0-0.local
*** at Tue Aug 15 00:32:01 2017

            **************************
            *                        *
            *        CCTRIPLES       *
            *                        *
            **************************


    Wave function   =    CCSD_T
    Reference wfn   =      RHF

    Nuclear Rep. energy (wfn)                =    1.660163791654902
    SCF energy          (wfn)                =  -29.133753561085733
    Reference energy    (file100)            =  -29.133753561087381
    CCSD energy         (file100)            =   -0.091944101565884
    Total CCSD energy   (file100)            =  -29.225697662653264

    Number of ijk index combinations:                4
    Memory available in words        :      3000000000
    ~Words needed per explicit thread:             108
    Number of threads for explicit ijk threading:    1

    (T) energy                                =   -0.000021951597705
      * CCSD(T) total energy                  =  -29.225719614250970


*** tstop() called on compute-0-0.local at Tue Aug 15 00:32:01 2017
Module time:
	user time   =       0.01 seconds =       0.00 minutes
	system time =       0.02 seconds =       0.00 minutes
	total time  =          0 seconds =       0.00 minutes
Total time:
	user time   =       0.58 seconds =       0.01 minutes
	system time =       0.45 seconds =       0.01 minutes
	total time  =         28 seconds =       0.47 minutes

*** Psi4 exiting successfully. Buy a developer a beer!
