    -----------------------------------------------------------------------
          Psi4: An Open-Source Ab Initio Electronic Structure Package
                              Psi4 1.0.0 Driver

                          Git: Rev {master} 6a9a71b dirty

    J. M. Turney, A. C. Simmonett, R. M. Parrish, E. G. Hohenstein,
    F. A. Evangelista, J. T. Fermann, B. J. Mintz, L. A. Burns, J. J. Wilke,
    M. L. Abrams, N. J. Russ, M. L. Leininger, C. L. Janssen, E. T. Seidl,
    W. D. Allen, H. F. Schaefer, R. A. King, E. F. Valeev, C. D. Sherrill,
    and T. D. Crawford, WIREs Comput. Mol. Sci. 2, 556-565 (2012)
    (doi: 10.1002/wcms.93)

                         Additional Contributions by
    A. E. DePrince, U. Bozkaya, A. Yu. Sokolov, D. G. A. Smith, R. Di Remigio,
    R. M. Richard, J. F. Gonthier, H. R. McAlexander, M. Saitow, and
    B. P. Pritchard
    -----------------------------------------------------------------------


    Psi4 started on: Tue Aug 15 00:43:01 2017

    Process ID:   9350
    PSI4DATADIR: /home/yhliu/psi4conda/share/psi4
    Memory level set to 256.000 MB

  ==> Input File <==

--------------------------------------------------------------------------
memory 24 Gb
molecule be2 {
0 1
Be   0.0    0.0 0.0
Be   8.7    0.0 0.0
units angstrom    
}

set basis 6-31g
set freeze_core true
set PRINT_BASIS True
set PUREAM False
set E_CONVERGENCE 1e-14
energy('ccsd(t)')
--------------------------------------------------------------------------
/home/yhliu/psi4conda/lib/python2.7/site-packages/v2rdm_casscf/v2rdm_casscf.so loaded.

  Memory set to  24.000 GiB by Python script.

*** tstart() called on compute-0-0.local
*** at Tue Aug 15 00:43:02 2017


         ---------------------------------------------------------
                                   SCF
            by Justin Turney, Rob Parrish, and Andy Simmonett
                              RHF Reference
                        1 Threads,  24000 MiB Core
         ---------------------------------------------------------

  ==> Geometry <==

    Molecular point group: d2h
    Full point group: D_inf_h

    Geometry (in Angstrom), charge = 0, multiplicity = 1:

       Center              X                  Y                   Z               Mass       
    ------------   -----------------  -----------------  -----------------  -----------------
          BE         -4.350000000000    -0.000000000000     0.000000000000     9.012182201000
          BE          4.350000000000     0.000000000000     0.000000000000     9.012182201000

  Running in d2h symmetry.

  Rotational constants: A = ************  B =      0.04943  C =      0.04943 [cm^-1]
  Rotational constants: A = ************  B =   1481.76292  C =   1481.76292 [MHz]
  Nuclear repulsion =    0.973199464073563

  Charge       = 0
  Multiplicity = 1
  Electrons    = 8
  Nalpha       = 4
  Nbeta        = 4

  ==> Algorithm <==

  SCF Algorithm Type is PK.
  DIIS enabled.
  MOM disabled.
  Fractional occupation disabled.
  Guess Type is SAD.
  Energy threshold   = 1.00e-14
  Density threshold  = 1.00e-08
  Integral threshold = 0.00e+00

  ==> Primary Basis <==

  Basis Set: 6-31G
    Number of shells: 10
    Number of basis function: 18
    Number of Cartesian functions: 18
    Spherical Harmonics?: false
    Max angular momentum: 1

  -AO BASIS SET INFORMATION:
    Name                   = 6-31G
    Total number of shells = 10
    Number of primitives   = 28
    Number of AO           = 18
    Number of SO           = 18
    Maximum AM             = 1
    Spherical Harmonics    = FALSE

  -Contraction Scheme:
    Atom   Type   All Primitives // Shells:
   ------ ------ --------------------------
       1    BE     10s 4p // 3s 2p 
       2    BE     10s 4p // 3s 2p 

  ==> AO Basis Functions <==

    [ 6-31G ]
    cartesian
    ****
   BE   1
    S   6 1.00
                      1264.58570000           0.00194480
                       189.93681000           0.01483510
                        43.15908900           0.07209060
                        12.09866300           0.23715420
                         3.80632320           0.46919870
                         1.27289030           0.35652020
    S   3 1.00
                         3.19646310          -0.11264870
                         0.74781330          -0.22950640
                         0.21996630           1.18691670
    P   3 1.00
                         3.19646310           0.05598020
                         0.74781330           0.26155060
                         0.21996630           0.79397230
    S   1 1.00
                         0.08230990           1.00000000
    P   1 1.00
                         0.08230990           1.00000000
    ****

  ==> Pre-Iterations <==

   -------------------------------------------------------
    Irrep   Nso     Nmo     Nalpha   Nbeta   Ndocc  Nsocc
   -------------------------------------------------------
     Ag         5       5       0       0       0       0
     B1g        2       2       0       0       0       0
     B2g        2       2       0       0       0       0
     B3g        0       0       0       0       0       0
     Au         0       0       0       0       0       0
     B1u        2       2       0       0       0       0
     B2u        2       2       0       0       0       0
     B3u        5       5       0       0       0       0
   -------------------------------------------------------
    Total      18      18       4       4       4       0
   -------------------------------------------------------

  ==> Integral Setup <==

  Using in-core PK algorithm.
   Calculation information:
      Number of atoms:                   2
      Number of AO shells:              10
      Number of primitives:             28
      Number of atomic orbitals:        18
      Number of basis functions:        18

      Integral cutoff                 1.00e-12
      Number of threads:                 1

  Performing in-core PK
  Using 29412 doubles for integral storage.
  We computed 1004 shell quartets total.
  Whereas there are 1540 unique shell quartets.
  ==> DiskJK: Disk-Based J/K Matrices <==

    J tasked:                  Yes
    K tasked:                  Yes
    wK tasked:                  No
    Memory (MB):             17166
    Schwarz Cutoff:          1E-12

    OpenMP threads:              1
  Minimum eigenvalue in the overlap matrix is 1.2854315276E-01.
  Using Symmetric Orthogonalization.
  SCF Guess: Superposition of Atomic Densities via on-the-fly atomic UHF.

  ==> Iterations <==

                        Total Energy        Delta E     RMS |[F,P]|

   @RHF iter   0:   -29.13352806101954   -2.91335e+01   1.38091e-05 
   @RHF iter   1:   -29.13352807949927   -1.84797e-08   2.02776e-06 
   @RHF iter   2:   -29.13352807999482   -4.95547e-10   3.84152e-07 DIIS
   @RHF iter   3:   -29.13352808001357   -1.87512e-11   1.79474e-08 DIIS
   @RHF iter   4:   -29.13352808001364   -6.39488e-14   8.92181e-10 DIIS
   @RHF iter   5:   -29.13352808001361    2.84217e-14   1.54747e-11 DIIS
   @RHF iter   6:   -29.13352808001362   -1.42109e-14   3.47286e-12 DIIS
   @RHF iter   7:   -29.13352808001363   -7.10543e-15   6.41616e-13 DIIS

  ==> Post-Iterations <==

    Orbital Energies (a.u.)
    -----------------------

    Doubly Occupied:                                                      

       1B3u   -4.706891     1Ag    -4.706891     2Ag    -0.301302  
       2B3u   -0.301289  

    Virtual:                                                              

       3Ag     0.082288     1B2u    0.082428     1B1u    0.082428  
       1B1g    0.082443     1B2g    0.082443     3B3u    0.082583  
       4Ag     0.439689     4B3u    0.439817     5Ag     0.464545  
       2B2u    0.464911     2B1u    0.464911     2B1g    0.464951  
       2B2g    0.464951     5B3u    0.465320  

    Final Occupation by Irrep:
             Ag   B1g   B2g   B3g    Au   B1u   B2u   B3u 
    DOCC [     2,    0,    0,    0,    0,    0,    0,    2 ]

  Energy converged.

  @RHF Final Energy:   -29.13352808001363

   => Energetics <=

    Nuclear Repulsion Energy =              0.9731994640735633
    One-Electron Energy =                 -40.1807114279660809
    Two-Electron Energy =                  10.0739838838788920
    DFT Exchange-Correlation Energy =       0.0000000000000000
    Empirical Dispersion Energy =           0.0000000000000000
    PCM Polarization Energy =               0.0000000000000000
    EFP Energy =                            0.0000000000000000
    Total Energy =                        -29.1335280800136225


  Saving occupied orbitals to File 180.

*** tstop() called on compute-0-0.local at Tue Aug 15 00:43:02 2017
Module time:
	user time   =       0.16 seconds =       0.00 minutes
	system time =       0.01 seconds =       0.00 minutes
	total time  =          0 seconds =       0.00 minutes
Total time:
	user time   =       0.16 seconds =       0.00 minutes
	system time =       0.01 seconds =       0.00 minutes
	total time  =          0 seconds =       0.00 minutes


Properties will be evaluated at   0.000000,   0.000000,   0.000000 Bohr

Properties computed using the SCF density matrix

  Nuclear Dipole Moment: (a.u.)
     X:     0.0000      Y:     0.0000      Z:     0.0000

  Electronic Dipole Moment: (a.u.)
     X:     0.0000      Y:     0.0000      Z:     0.0000

  Dipole Moment: (a.u.)
     X:     0.0000      Y:     0.0000      Z:     0.0000     Total:     0.0000

  Dipole Moment: (Debye)
     X:     0.0000      Y:     0.0000      Z:     0.0000     Total:     0.0000

 MINTS: Wrapper to libmints.
   by Justin Turney

   Calculation information:
      Number of atoms:                   2
      Number of AO shells:              10
      Number of SO shells:               5
      Number of primitives:             28
      Number of atomic orbitals:        18
      Number of basis functions:        18

      Number of irreps:                  8
      Integral cutoff                 0.00e+00
      Number of functions per irrep: [   5    2    2    0    0    2    2    5 ]

 OEINTS: Overlap, kinetic, potential, dipole, and quadrupole integrals
         stored in file 35.

      Computing two-electron integrals...done
      Computed 2376 non-zero two-electron integrals.
        Stored in file 33.


*** tstart() called on compute-0-0.local
*** at Tue Aug 15 00:43:02 2017


	Wfn Parameters:
	--------------------
	Wavefunction         = CCSD_T
	Number of irreps     = 8
	Number of MOs        = 18
	Number of active MOs = 16
	AO-Basis             = NONE
	Semicanonical        = false
	Reference            = RHF
	Print Level          = 1

	IRREP	# MOs	# FZDC	# DOCC	# SOCC	# VIRT	# FZVR
	-----	-----	------	------	------	------	------
	 Ag	   5	    1	    1	    0	    3	    0
	 B1g	   2	    0	    0	    0	    2	    0
	 B2g	   2	    0	    0	    0	    2	    0
	 B3g	   0	    0	    0	    0	    0	    0
	 Au	   0	    0	    0	    0	    0	    0
	 B1u	   2	    0	    0	    0	    2	    0
	 B2u	   2	    0	    0	    0	    2	    0
	 B3u	   5	    1	    1	    0	    3	    0
	Transforming integrals...
	IWL integrals will be deleted.
	(OO|OO)...
	Presorting SO-basis two-electron integrals.
	Sorting File: SO Ints (nn|nn) nbuckets = 1
	Transforming the one-electron integrals and constructing Fock matrices
	Starting first half-transformation.
	Sorting half-transformed integrals.
	First half integral transformation complete.
	Starting second half-transformation.
	Two-electron integral transformation complete.
	(OO|OV)...
	Starting second half-transformation.
	Two-electron integral transformation complete.
	(OO|VV)...
	Starting second half-transformation.
	Two-electron integral transformation complete.
	(OV|OO)...
	Starting first half-transformation.
	Sorting half-transformed integrals.
	First half integral transformation complete.
	Starting second half-transformation.
	Two-electron integral transformation complete.
	(OV|OV)...
	Starting second half-transformation.
	Two-electron integral transformation complete.
	(OV|VV)...
	Starting second half-transformation.
	Two-electron integral transformation complete.
	(VV|OO)...
	Starting first half-transformation.
	Sorting half-transformed integrals.
	First half integral transformation complete.
	Starting second half-transformation.
	Two-electron integral transformation complete.
	(VV|OV)...
	Starting second half-transformation.
	Two-electron integral transformation complete.
	(VV|VV)...
	Starting second half-transformation.
	Two-electron integral transformation complete.
	Frozen core energy     =    -27.94930374317917

	Size of irrep 0 of <ab|cd> integrals:      0.001 (MW) /      0.009 (MB)
	Size of irrep 1 of <ab|cd> integrals:      0.001 (MW) /      0.005 (MB)
	Size of irrep 2 of <ab|cd> integrals:      0.001 (MW) /      0.005 (MB)
	Size of irrep 3 of <ab|cd> integrals:      0.000 (MW) /      0.002 (MB)
	Size of irrep 4 of <ab|cd> integrals:      0.000 (MW) /      0.002 (MB)
	Size of irrep 5 of <ab|cd> integrals:      0.001 (MW) /      0.005 (MB)
	Size of irrep 6 of <ab|cd> integrals:      0.001 (MW) /      0.005 (MB)
	Size of irrep 7 of <ab|cd> integrals:      0.001 (MW) /      0.009 (MB)
	Total:                                     0.005 (MW) /      0.041 (MB)

	Size of irrep 0 of <ia|bc> integrals:      0.000 (MW) /      0.002 (MB)
	Size of irrep 1 of <ia|bc> integrals:      0.000 (MW) /      0.001 (MB)
	Size of irrep 2 of <ia|bc> integrals:      0.000 (MW) /      0.001 (MB)
	Size of irrep 3 of <ia|bc> integrals:      0.000 (MW) /      0.000 (MB)
	Size of irrep 4 of <ia|bc> integrals:      0.000 (MW) /      0.000 (MB)
	Size of irrep 5 of <ia|bc> integrals:      0.000 (MW) /      0.001 (MB)
	Size of irrep 6 of <ia|bc> integrals:      0.000 (MW) /      0.001 (MB)
	Size of irrep 7 of <ia|bc> integrals:      0.000 (MW) /      0.002 (MB)
	Total:                                     0.001 (MW) /      0.006 (MB)

	Size of irrep 0 of tijab amplitudes:       0.000 (MW) /      0.001 (MB)
	Size of irrep 1 of tijab amplitudes:       0.000 (MW) /      0.000 (MB)
	Size of irrep 2 of tijab amplitudes:       0.000 (MW) /      0.000 (MB)
	Size of irrep 3 of tijab amplitudes:       0.000 (MW) /      0.000 (MB)
	Size of irrep 4 of tijab amplitudes:       0.000 (MW) /      0.000 (MB)
	Size of irrep 5 of tijab amplitudes:       0.000 (MW) /      0.000 (MB)
	Size of irrep 6 of tijab amplitudes:       0.000 (MW) /      0.000 (MB)
	Size of irrep 7 of tijab amplitudes:       0.000 (MW) /      0.001 (MB)
	Total:                                     0.000 (MW) /      0.001 (MB)

	Nuclear Rep. energy          =      0.97319946407356
	SCF energy                   =    -29.13352808001363
	One-electron energy          =     -3.10966603757104
	Two-electron energy          =      0.95224223666268
	Reference energy             =    -29.13352808001397

*** tstop() called on compute-0-0.local at Tue Aug 15 00:43:02 2017
Module time:
	user time   =       0.02 seconds =       0.00 minutes
	system time =       0.02 seconds =       0.00 minutes
	total time  =          0 seconds =       0.00 minutes
Total time:
	user time   =       0.21 seconds =       0.00 minutes
	system time =       0.03 seconds =       0.00 minutes
	total time  =          0 seconds =       0.00 minutes

*** tstart() called on compute-0-0.local
*** at Tue Aug 15 00:43:02 2017

            **************************
            *                        *
            *        CCENERGY        *
            *                        *
            **************************

    Nuclear Rep. energy (wfn)     =    0.973199464073563
    SCF energy          (wfn)     =  -29.133528080013630
    Reference energy    (file100) =  -29.133528080013967

    Input parameters:
    -----------------
    Wave function   =     CCSD_T
    Reference wfn   =     RHF
    Brueckner       =     No
    Memory (Mbytes) =     24000.0
    Maxiter         =     50
    R_Convergence   =     1.0e-07
    E_Convergence   =     1.0e-14
    Restart         =     Yes
    DIIS            =     Yes
    AO Basis        =     NONE
    ABCD            =     NEW
    Cache Level     =     2
    Cache Type      =     LOW
    Print Level     =     1
    Num. of threads =     1
    # Amps to Print =     10
    Print MP2 Amps? =     No
    Analyze T2 Amps =     No
    Print Pair Ener =     No
    Local CC        =     No
    SCS-MP2         =     False
    SCSN-MP2        =     False
    SCS-CCSD        =     False

MP2 correlation energy -0.0465444372345421
                Solving CC Amplitude Equations
                ------------------------------
  Iter             Energy              RMS        T1Diag      D1Diag    New D1Diag    D2Diag
  ----     ---------------------    ---------   ----------  ----------  ----------   --------
     0        -0.046544437234542    0.000e+00    0.000000    0.000000    0.000000    0.161997
     1        -0.069184891819349    1.194e-01    0.004425    0.006259    0.006259    0.244861
     2        -0.092223027070654    6.289e-02    0.011252    0.015915    0.015915    0.333405
     3        -0.091512184049249    4.048e-03    0.011704    0.016555    0.016555    0.331909
     4        -0.091923957899135    1.253e-03    0.011811    0.016705    0.016705    0.333508
     5        -0.091957364484504    9.851e-05    0.011805    0.016698    0.016698    0.333645
     6        -0.091951806430701    1.178e-05    0.011804    0.016695    0.016695    0.333625
     7        -0.091953159747416    4.170e-06    0.011804    0.016695    0.016695    0.333630
     8        -0.091953253301352    2.547e-07    0.011804    0.016695    0.016695    0.333630
     9        -0.091953262265660    4.635e-08    0.011804    0.016695    0.016695    0.333630
    10        -0.091953242916802    5.779e-08    0.011804    0.016695    0.016695    0.333630
    11        -0.091953242896144    3.652e-09    0.011804    0.016695    0.016695    0.333630
    12        -0.091953242900678    9.221e-10    0.011804    0.016695    0.016695    0.333630
    13        -0.091953242903918    3.245e-10    0.011804    0.016695    0.016695    0.333630
    14        -0.091953242903672    3.913e-11    0.011804    0.016695    0.016695    0.333630
    15        -0.091953242903781    1.501e-11    0.011804    0.016695    0.016695    0.333630
    16        -0.091953242903941    4.276e-12    0.011804    0.016695    0.016695    0.333630
    17        -0.091953242903993    1.012e-12    0.011804    0.016695    0.016695    0.333630
    18        -0.091953242904005    2.985e-13    0.011804    0.016695    0.016695    0.333630
    19        -0.091953242904005    1.946e-13    0.011804    0.016695    0.016695    0.333630
    20        -0.091953242904002    1.261e-13    0.011804    0.016695    0.016695    0.333630

    Iterations converged.


    Largest TIA Amplitudes:
              0   1        -0.0166949920
              1  12        -0.0166902021
              0   2        -0.0001036121
              1  13        -0.0000975602
              1  11        -0.0000255714
              0   0         0.0000134866

    Largest TIjAb Amplitudes:
      1   1  11  11        -0.0868622719
      0   1   0  11        -0.0868458599
      1   0  11   0        -0.0868458599
      0   0   0   0        -0.0868294560
      1   1   3   3        -0.0864784329
      1   1   5   5        -0.0864784329
      0   1   7   5        -0.0864755248
      0   1   9   3        -0.0864755248
      1   0   3   9        -0.0864755248
      1   0   5   7        -0.0864755248

    SCF energy       (wfn)                    =  -29.133528080013630
    Reference energy (file100)                =  -29.133528080013967

    Opposite-spin MP2 correlation energy      =   -0.046539409626326
    Same-spin MP2 correlation energy          =   -0.000005027608216
    MP2 correlation energy                    =   -0.046544437234542
      * MP2 total energy                      =  -29.180072517248508

    Opposite-spin CCSD correlation energy     =   -0.091948057744307
    Same-spin CCSD correlation energy         =   -0.000005185159695
    CCSD correlation energy                   =   -0.091953242904002
      * CCSD total energy                     =  -29.225481322917968


*** tstop() called on compute-0-0.local at Tue Aug 15 00:43:06 2017
Module time:
	user time   =       0.22 seconds =       0.00 minutes
	system time =       0.32 seconds =       0.01 minutes
	total time  =          4 seconds =       0.07 minutes
Total time:
	user time   =       0.43 seconds =       0.01 minutes
	system time =       0.35 seconds =       0.01 minutes
	total time  =          4 seconds =       0.07 minutes

*** tstart() called on compute-0-0.local
*** at Tue Aug 15 00:43:06 2017

            **************************
            *                        *
            *        CCTRIPLES       *
            *                        *
            **************************


    Wave function   =    CCSD_T
    Reference wfn   =      RHF

    Nuclear Rep. energy (wfn)                =    0.973199464073563
    SCF energy          (wfn)                =  -29.133528080013630
    Reference energy    (file100)            =  -29.133528080013967
    CCSD energy         (file100)            =   -0.091953242904002
    Total CCSD energy   (file100)            =  -29.225481322917968

    Number of ijk index combinations:                4
    Memory available in words        :      3000000000
    ~Words needed per explicit thread:             108
    Number of threads for explicit ijk threading:    1

    (T) energy                                =   -0.000000407537990
      * CCSD(T) total energy                  =  -29.225481730455957


*** tstop() called on compute-0-0.local at Tue Aug 15 00:43:07 2017
Module time:
	user time   =       0.00 seconds =       0.00 minutes
	system time =       0.02 seconds =       0.00 minutes
	total time  =          1 seconds =       0.02 minutes
Total time:
	user time   =       0.43 seconds =       0.01 minutes
	system time =       0.37 seconds =       0.01 minutes
	total time  =          5 seconds =       0.08 minutes

*** Psi4 exiting successfully. Buy a developer a beer!
