    -----------------------------------------------------------------------
          Psi4: An Open-Source Ab Initio Electronic Structure Package
                              Psi4 1.0.0 Driver

                          Git: Rev {master} 6a9a71b dirty

    J. M. Turney, A. C. Simmonett, R. M. Parrish, E. G. Hohenstein,
    F. A. Evangelista, J. T. Fermann, B. J. Mintz, L. A. Burns, J. J. Wilke,
    M. L. Abrams, N. J. Russ, M. L. Leininger, C. L. Janssen, E. T. Seidl,
    W. D. Allen, H. F. Schaefer, R. A. King, E. F. Valeev, C. D. Sherrill,
    and T. D. Crawford, WIREs Comput. Mol. Sci. 2, 556-565 (2012)
    (doi: 10.1002/wcms.93)

                         Additional Contributions by
    A. E. DePrince, U. Bozkaya, A. Yu. Sokolov, D. G. A. Smith, R. Di Remigio,
    R. M. Richard, J. F. Gonthier, H. R. McAlexander, M. Saitow, and
    B. P. Pritchard
    -----------------------------------------------------------------------


    Psi4 started on: Tue Aug 15 00:27:49 2017

    Process ID:   7884
    PSI4DATADIR: /home/yhliu/psi4conda/share/psi4
    Memory level set to 256.000 MB

  ==> Input File <==

--------------------------------------------------------------------------
memory 24 Gb
molecule be2 {
0 1
Be   0.0    0.0 0.0
Be   4.5    0.0 0.0
units angstrom    
}

set basis 6-31g
set freeze_core true
set PRINT_BASIS True
set PUREAM False
set E_CONVERGENCE 1e-14
energy('ccsd(t)')
--------------------------------------------------------------------------
/home/yhliu/psi4conda/lib/python2.7/site-packages/v2rdm_casscf/v2rdm_casscf.so loaded.

  Memory set to  24.000 GiB by Python script.

*** tstart() called on compute-0-0.local
*** at Tue Aug 15 00:27:50 2017


         ---------------------------------------------------------
                                   SCF
            by Justin Turney, Rob Parrish, and Andy Simmonett
                              RHF Reference
                        1 Threads,  24000 MiB Core
         ---------------------------------------------------------

  ==> Geometry <==

    Molecular point group: d2h
    Full point group: D_inf_h

    Geometry (in Angstrom), charge = 0, multiplicity = 1:

       Center              X                  Y                   Z               Mass       
    ------------   -----------------  -----------------  -----------------  -----------------
          BE         -2.250000000000    -0.000000000000     0.000000000000     9.012182201000
          BE          2.250000000000     0.000000000000     0.000000000000     9.012182201000

  Running in d2h symmetry.

  Rotational constants: A = ************  B =      0.18474  C =      0.18474 [cm^-1]
  Rotational constants: A = ************  B =   5538.50052  C =   5538.50052 [MHz]
  Nuclear repulsion =    1.881518963875555

  Charge       = 0
  Multiplicity = 1
  Electrons    = 8
  Nalpha       = 4
  Nbeta        = 4

  ==> Algorithm <==

  SCF Algorithm Type is PK.
  DIIS enabled.
  MOM disabled.
  Fractional occupation disabled.
  Guess Type is SAD.
  Energy threshold   = 1.00e-14
  Density threshold  = 1.00e-08
  Integral threshold = 0.00e+00

  ==> Primary Basis <==

  Basis Set: 6-31G
    Number of shells: 10
    Number of basis function: 18
    Number of Cartesian functions: 18
    Spherical Harmonics?: false
    Max angular momentum: 1

  -AO BASIS SET INFORMATION:
    Name                   = 6-31G
    Total number of shells = 10
    Number of primitives   = 28
    Number of AO           = 18
    Number of SO           = 18
    Maximum AM             = 1
    Spherical Harmonics    = FALSE

  -Contraction Scheme:
    Atom   Type   All Primitives // Shells:
   ------ ------ --------------------------
       1    BE     10s 4p // 3s 2p 
       2    BE     10s 4p // 3s 2p 

  ==> AO Basis Functions <==

    [ 6-31G ]
    cartesian
    ****
   BE   1
    S   6 1.00
                      1264.58570000           0.00194480
                       189.93681000           0.01483510
                        43.15908900           0.07209060
                        12.09866300           0.23715420
                         3.80632320           0.46919870
                         1.27289030           0.35652020
    S   3 1.00
                         3.19646310          -0.11264870
                         0.74781330          -0.22950640
                         0.21996630           1.18691670
    P   3 1.00
                         3.19646310           0.05598020
                         0.74781330           0.26155060
                         0.21996630           0.79397230
    S   1 1.00
                         0.08230990           1.00000000
    P   1 1.00
                         0.08230990           1.00000000
    ****

  ==> Pre-Iterations <==

   -------------------------------------------------------
    Irrep   Nso     Nmo     Nalpha   Nbeta   Ndocc  Nsocc
   -------------------------------------------------------
     Ag         5       5       0       0       0       0
     B1g        2       2       0       0       0       0
     B2g        2       2       0       0       0       0
     B3g        0       0       0       0       0       0
     Au         0       0       0       0       0       0
     B1u        2       2       0       0       0       0
     B2u        2       2       0       0       0       0
     B3u        5       5       0       0       0       0
   -------------------------------------------------------
    Total      18      18       4       4       4       0
   -------------------------------------------------------

  ==> Integral Setup <==

  Using in-core PK algorithm.
   Calculation information:
      Number of atoms:                   2
      Number of AO shells:              10
      Number of primitives:             28
      Number of atomic orbitals:        18
      Number of basis functions:        18

      Integral cutoff                 1.00e-12
      Number of threads:                 1

  Performing in-core PK
  Using 29412 doubles for integral storage.
  We computed 1478 shell quartets total.
  Whereas there are 1540 unique shell quartets.
  ==> DiskJK: Disk-Based J/K Matrices <==

    J tasked:                  Yes
    K tasked:                  Yes
    wK tasked:                  No
    Memory (MB):             17166
    Schwarz Cutoff:          1E-12

    OpenMP threads:              1
  Minimum eigenvalue in the overlap matrix is 1.0370138142E-01.
  Using Symmetric Orthogonalization.
  SCF Guess: Superposition of Atomic Densities via on-the-fly atomic UHF.

  ==> Iterations <==

                        Total Energy        Delta E     RMS |[F,P]|

   @RHF iter   0:   -29.13443214786964   -2.91344e+01   2.08498e-03 
   @RHF iter   1:   -29.13375810853529    6.74039e-04   4.51223e-04 
   @RHF iter   2:   -29.13379927614133   -4.11676e-05   1.43230e-04 DIIS
   @RHF iter   3:   -29.13380427594066   -4.99980e-06   1.01638e-05 DIIS
   @RHF iter   4:   -29.13380429333721   -1.73966e-08   1.17953e-06 DIIS
   @RHF iter   5:   -29.13380429349554   -1.58330e-10   8.37807e-08 DIIS
   @RHF iter   6:   -29.13380429349635   -8.10019e-13   6.54798e-09 DIIS
   @RHF iter   7:   -29.13380429349636   -3.55271e-15   4.73617e-10 DIIS

  ==> Post-Iterations <==

    Orbital Energies (a.u.)
    -----------------------

    Doubly Occupied:                                                      

       1B3u   -4.707584     1Ag    -4.707580     2Ag    -0.310071  
       2B3u   -0.292850  

    Virtual:                                                              

       3Ag     0.059003     1B1u    0.074864     1B2u    0.074864  
       1B2g    0.089955     1B1g    0.089955     3B3u    0.117802  
       4Ag     0.414930     4B3u    0.447011     2B1u    0.452432  
       2B2u    0.452432     5Ag     0.468127     2B2g    0.479320  
       2B1g    0.479320     5B3u    0.569928  

    Final Occupation by Irrep:
             Ag   B1g   B2g   B3g    Au   B1u   B2u   B3u 
    DOCC [     2,    0,    0,    0,    0,    0,    0,    2 ]

  Energy converged.

  @RHF Final Energy:   -29.13380429349636

   => Energetics <=

    Nuclear Repulsion Energy =              1.8815189638755554
    One-Electron Energy =                 -41.9944762621550822
    Two-Electron Energy =                  10.9791530047831642
    DFT Exchange-Correlation Energy =       0.0000000000000000
    Empirical Dispersion Energy =           0.0000000000000000
    PCM Polarization Energy =               0.0000000000000000
    EFP Energy =                            0.0000000000000000
    Total Energy =                        -29.1338042934963610


  Saving occupied orbitals to File 180.

*** tstop() called on compute-0-0.local at Tue Aug 15 00:27:51 2017
Module time:
	user time   =       0.20 seconds =       0.00 minutes
	system time =       0.01 seconds =       0.00 minutes
	total time  =          1 seconds =       0.02 minutes
Total time:
	user time   =       0.20 seconds =       0.00 minutes
	system time =       0.01 seconds =       0.00 minutes
	total time  =          1 seconds =       0.02 minutes


Properties will be evaluated at   0.000000,   0.000000,   0.000000 Bohr

Properties computed using the SCF density matrix

  Nuclear Dipole Moment: (a.u.)
     X:     0.0000      Y:     0.0000      Z:     0.0000

  Electronic Dipole Moment: (a.u.)
     X:     0.0000      Y:     0.0000      Z:     0.0000

  Dipole Moment: (a.u.)
     X:     0.0000      Y:     0.0000      Z:     0.0000     Total:     0.0000

  Dipole Moment: (Debye)
     X:     0.0000      Y:     0.0000      Z:     0.0000     Total:     0.0000

 MINTS: Wrapper to libmints.
   by Justin Turney

   Calculation information:
      Number of atoms:                   2
      Number of AO shells:              10
      Number of SO shells:               5
      Number of primitives:             28
      Number of atomic orbitals:        18
      Number of basis functions:        18

      Number of irreps:                  8
      Integral cutoff                 0.00e+00
      Number of functions per irrep: [   5    2    2    0    0    2    2    5 ]

 OEINTS: Overlap, kinetic, potential, dipole, and quadrupole integrals
         stored in file 35.

      Computing two-electron integrals...done
      Computed 2376 non-zero two-electron integrals.
        Stored in file 33.


*** tstart() called on compute-0-0.local
*** at Tue Aug 15 00:27:51 2017


	Wfn Parameters:
	--------------------
	Wavefunction         = CCSD_T
	Number of irreps     = 8
	Number of MOs        = 18
	Number of active MOs = 16
	AO-Basis             = NONE
	Semicanonical        = false
	Reference            = RHF
	Print Level          = 1

	IRREP	# MOs	# FZDC	# DOCC	# SOCC	# VIRT	# FZVR
	-----	-----	------	------	------	------	------
	 Ag	   5	    1	    1	    0	    3	    0
	 B1g	   2	    0	    0	    0	    2	    0
	 B2g	   2	    0	    0	    0	    2	    0
	 B3g	   0	    0	    0	    0	    0	    0
	 Au	   0	    0	    0	    0	    0	    0
	 B1u	   2	    0	    0	    0	    2	    0
	 B2u	   2	    0	    0	    0	    2	    0
	 B3u	   5	    1	    1	    0	    3	    0
	Transforming integrals...
	IWL integrals will be deleted.
	(OO|OO)...
	Presorting SO-basis two-electron integrals.
	Sorting File: SO Ints (nn|nn) nbuckets = 1
	Transforming the one-electron integrals and constructing Fock matrices
	Starting first half-transformation.
	Sorting half-transformed integrals.
	First half integral transformation complete.
	Starting second half-transformation.
	Two-electron integral transformation complete.
	(OO|OV)...
	Starting second half-transformation.
	Two-electron integral transformation complete.
	(OO|VV)...
	Starting second half-transformation.
	Two-electron integral transformation complete.
	(OV|OO)...
	Starting first half-transformation.
	Sorting half-transformed integrals.
	First half integral transformation complete.
	Starting second half-transformation.
	Two-electron integral transformation complete.
	(OV|OV)...
	Starting second half-transformation.
	Two-electron integral transformation complete.
	(OV|VV)...
	Starting second half-transformation.
	Two-electron integral transformation complete.
	(VV|OO)...
	Starting first half-transformation.
	Sorting half-transformed integrals.
	First half integral transformation complete.
	Starting second half-transformation.
	Two-electron integral transformation complete.
	(VV|OV)...
	Starting second half-transformation.
	Two-electron integral transformation complete.
	(VV|VV)...
	Starting second half-transformation.
	Two-electron integral transformation complete.
	Frozen core energy     =    -28.63054762345353

	Size of irrep 0 of <ab|cd> integrals:      0.001 (MW) /      0.009 (MB)
	Size of irrep 1 of <ab|cd> integrals:      0.001 (MW) /      0.005 (MB)
	Size of irrep 2 of <ab|cd> integrals:      0.001 (MW) /      0.005 (MB)
	Size of irrep 3 of <ab|cd> integrals:      0.000 (MW) /      0.002 (MB)
	Size of irrep 4 of <ab|cd> integrals:      0.000 (MW) /      0.002 (MB)
	Size of irrep 5 of <ab|cd> integrals:      0.001 (MW) /      0.005 (MB)
	Size of irrep 6 of <ab|cd> integrals:      0.001 (MW) /      0.005 (MB)
	Size of irrep 7 of <ab|cd> integrals:      0.001 (MW) /      0.009 (MB)
	Total:                                     0.005 (MW) /      0.041 (MB)

	Size of irrep 0 of <ia|bc> integrals:      0.000 (MW) /      0.002 (MB)
	Size of irrep 1 of <ia|bc> integrals:      0.000 (MW) /      0.001 (MB)
	Size of irrep 2 of <ia|bc> integrals:      0.000 (MW) /      0.001 (MB)
	Size of irrep 3 of <ia|bc> integrals:      0.000 (MW) /      0.000 (MB)
	Size of irrep 4 of <ia|bc> integrals:      0.000 (MW) /      0.000 (MB)
	Size of irrep 5 of <ia|bc> integrals:      0.000 (MW) /      0.001 (MB)
	Size of irrep 6 of <ia|bc> integrals:      0.000 (MW) /      0.001 (MB)
	Size of irrep 7 of <ia|bc> integrals:      0.000 (MW) /      0.002 (MB)
	Total:                                     0.001 (MW) /      0.006 (MB)

	Size of irrep 0 of tijab amplitudes:       0.000 (MW) /      0.001 (MB)
	Size of irrep 1 of tijab amplitudes:       0.000 (MW) /      0.000 (MB)
	Size of irrep 2 of tijab amplitudes:       0.000 (MW) /      0.000 (MB)
	Size of irrep 3 of tijab amplitudes:       0.000 (MW) /      0.000 (MB)
	Size of irrep 4 of tijab amplitudes:       0.000 (MW) /      0.000 (MB)
	Size of irrep 5 of tijab amplitudes:       0.000 (MW) /      0.000 (MB)
	Size of irrep 6 of tijab amplitudes:       0.000 (MW) /      0.000 (MB)
	Size of irrep 7 of tijab amplitudes:       0.000 (MW) /      0.001 (MB)
	Total:                                     0.000 (MW) /      0.001 (MB)

	Nuclear Rep. energy          =      1.88151896387556
	SCF energy                   =    -29.13380429349636
	One-electron energy          =     -3.56370927456239
	Two-electron energy          =      1.17893364064395
	Reference energy             =    -29.13380429349642

*** tstop() called on compute-0-0.local at Tue Aug 15 00:27:51 2017
Module time:
	user time   =       0.03 seconds =       0.00 minutes
	system time =       0.04 seconds =       0.00 minutes
	total time  =          0 seconds =       0.00 minutes
Total time:
	user time   =       0.27 seconds =       0.00 minutes
	system time =       0.05 seconds =       0.00 minutes
	total time  =          1 seconds =       0.02 minutes

*** tstart() called on compute-0-0.local
*** at Tue Aug 15 00:27:51 2017

            **************************
            *                        *
            *        CCENERGY        *
            *                        *
            **************************

    Nuclear Rep. energy (wfn)     =    1.881518963875555
    SCF energy          (wfn)     =  -29.133804293496357
    Reference energy    (file100) =  -29.133804293496418

    Input parameters:
    -----------------
    Wave function   =     CCSD_T
    Reference wfn   =     RHF
    Brueckner       =     No
    Memory (Mbytes) =     24000.0
    Maxiter         =     50
    R_Convergence   =     1.0e-07
    E_Convergence   =     1.0e-14
    Restart         =     Yes
    DIIS            =     Yes
    AO Basis        =     NONE
    ABCD            =     NEW
    Cache Level     =     2
    Cache Type      =     LOW
    Print Level     =     1
    Num. of threads =     1
    # Amps to Print =     10
    Print MP2 Amps? =     No
    Analyze T2 Amps =     No
    Print Pair Ener =     No
    Local CC        =     No
    SCS-MP2         =     False
    SCSN-MP2        =     False
    SCS-CCSD        =     False

MP2 correlation energy -0.0469649675018692
                Solving CC Amplitude Equations
                ------------------------------
  Iter             Energy              RMS        T1Diag      D1Diag    New D1Diag    D2Diag
  ----     ---------------------    ---------   ----------  ----------  ----------   --------
     0        -0.046964967501869    0.000e+00    0.000000    0.000000    0.000000    0.164594
     1        -0.069512222328071    1.186e-01    0.004519    0.006442    0.006442    0.248123
     2        -0.092005716863415    6.223e-02    0.011833    0.017047    0.017047    0.336229
     3        -0.091437169257243    4.780e-03    0.012656    0.018481    0.018481    0.335414
     4        -0.091865855299790    1.447e-03    0.012848    0.018798    0.018798    0.337119
     5        -0.091963607249957    2.417e-04    0.012900    0.018899    0.018899    0.337492
     6        -0.091901820477322    1.860e-04    0.012879    0.018872    0.018872    0.337246
     7        -0.091896142009121    1.658e-05    0.012878    0.018870    0.018870    0.337222
     8        -0.091898754673662    9.567e-06    0.012878    0.018872    0.018872    0.337232
     9        -0.091898666814736    3.315e-06    0.012878    0.018871    0.018871    0.337232
    10        -0.091898853358275    1.869e-06    0.012878    0.018871    0.018871    0.337233
    11        -0.091898845370663    6.141e-07    0.012878    0.018871    0.018871    0.337233
    12        -0.091898852547572    2.655e-07    0.012878    0.018871    0.018871    0.337233
    13        -0.091898850556856    7.927e-08    0.012878    0.018871    0.018871    0.337233
    14        -0.091898849405934    2.479e-08    0.012878    0.018871    0.018871    0.337233
    15        -0.091898849574530    6.997e-09    0.012878    0.018871    0.018871    0.337233
    16        -0.091898849624965    2.410e-09    0.012878    0.018871    0.018871    0.337233
    17        -0.091898849665526    7.658e-10    0.012878    0.018871    0.018871    0.337233
    18        -0.091898849686017    3.318e-10    0.012878    0.018871    0.018871    0.337233
    19        -0.091898849685437    1.669e-10    0.012878    0.018871    0.018871    0.337233
    20        -0.091898849684569    9.748e-11    0.012878    0.018871    0.018871    0.337233
    21        -0.091898849683381    4.860e-11    0.012878    0.018871    0.018871    0.337233
    22        -0.091898849684355    1.822e-11    0.012878    0.018871    0.018871    0.337233
    23        -0.091898849684800    7.870e-12    0.012878    0.018871    0.018871    0.337233
    24        -0.091898849684786    3.650e-12    0.012878    0.018871    0.018871    0.337233
    25        -0.091898849684697    1.706e-12    0.012878    0.018871    0.018871    0.337233
    26        -0.091898849684655    7.576e-13    0.012878    0.018871    0.018871    0.337233
    27        -0.091898849684658    3.532e-13    0.012878    0.018871    0.018871    0.337233
    28        -0.091898849684667    1.724e-13    0.012878    0.018871    0.018871    0.337233

    Iterations converged.


    Largest TIA Amplitudes:
              0   1         0.0165956417
              1  12        -0.0126454281
              1  11         0.0097375701
              0   0         0.0078886490
              1  13        -0.0072470356
              0   2        -0.0042981735

    Largest TIjAb Amplitudes:
      0   0   0   0        -0.0956574523
      1   1   0   0        -0.0918667205
      1   1   3   3        -0.0912979398
      1   1   5   5        -0.0912979398
      0   1   0  11         0.0908513532
      1   0  11   0         0.0908513532
      0   1   7   5        -0.0884492206
      0   1   9   3        -0.0884492206
      1   0   3   9        -0.0884492206
      1   0   5   7        -0.0884492206

    SCF energy       (wfn)                    =  -29.133804293496357
    Reference energy (file100)                =  -29.133804293496418

    Opposite-spin MP2 correlation energy      =   -0.046679984072057
    Same-spin MP2 correlation energy          =   -0.000284983429812
    MP2 correlation energy                    =   -0.046964967501869
      * MP2 total energy                      =  -29.180769260998286

    Opposite-spin CCSD correlation energy     =   -0.091594689584694
    Same-spin CCSD correlation energy         =   -0.000304160093497
    CCSD correlation energy                   =   -0.091898849684667
      * CCSD total energy                     =  -29.225703143181086


*** tstop() called on compute-0-0.local at Tue Aug 15 00:27:55 2017
Module time:
	user time   =       0.40 seconds =       0.01 minutes
	system time =       0.48 seconds =       0.01 minutes
	total time  =          4 seconds =       0.07 minutes
Total time:
	user time   =       0.67 seconds =       0.01 minutes
	system time =       0.53 seconds =       0.01 minutes
	total time  =          5 seconds =       0.08 minutes

*** tstart() called on compute-0-0.local
*** at Tue Aug 15 00:27:55 2017

            **************************
            *                        *
            *        CCTRIPLES       *
            *                        *
            **************************


    Wave function   =    CCSD_T
    Reference wfn   =      RHF

    Nuclear Rep. energy (wfn)                =    1.881518963875555
    SCF energy          (wfn)                =  -29.133804293496357
    Reference energy    (file100)            =  -29.133804293496418
    CCSD energy         (file100)            =   -0.091898849684667
    Total CCSD energy   (file100)            =  -29.225703143181086

    Number of ijk index combinations:                4
    Memory available in words        :      3000000000
    ~Words needed per explicit thread:             108
    Number of threads for explicit ijk threading:    1

    (T) energy                                =   -0.000061132214177
      * CCSD(T) total energy                  =  -29.225764275395260


*** tstop() called on compute-0-0.local at Tue Aug 15 00:27:56 2017
Module time:
	user time   =       0.01 seconds =       0.00 minutes
	system time =       0.02 seconds =       0.00 minutes
	total time  =          1 seconds =       0.02 minutes
Total time:
	user time   =       0.68 seconds =       0.01 minutes
	system time =       0.55 seconds =       0.01 minutes
	total time  =          6 seconds =       0.10 minutes

*** Psi4 exiting successfully. Buy a developer a beer!
