    -----------------------------------------------------------------------
          Psi4: An Open-Source Ab Initio Electronic Structure Package
                              Psi4 1.0.0 Driver

                          Git: Rev {master} 6a9a71b dirty

    J. M. Turney, A. C. Simmonett, R. M. Parrish, E. G. Hohenstein,
    F. A. Evangelista, J. T. Fermann, B. J. Mintz, L. A. Burns, J. J. Wilke,
    M. L. Abrams, N. J. Russ, M. L. Leininger, C. L. Janssen, E. T. Seidl,
    W. D. Allen, H. F. Schaefer, R. A. King, E. F. Valeev, C. D. Sherrill,
    and T. D. Crawford, WIREs Comput. Mol. Sci. 2, 556-565 (2012)
    (doi: 10.1002/wcms.93)

                         Additional Contributions by
    A. E. DePrince, U. Bozkaya, A. Yu. Sokolov, D. G. A. Smith, R. Di Remigio,
    R. M. Richard, J. F. Gonthier, H. R. McAlexander, M. Saitow, and
    B. P. Pritchard
    -----------------------------------------------------------------------


    Psi4 started on: Tue Aug 15 00:27:56 2017

    Process ID:   7895
    PSI4DATADIR: /home/yhliu/psi4conda/share/psi4
    Memory level set to 256.000 MB

  ==> Input File <==

--------------------------------------------------------------------------
memory 24 Gb
molecule be2 {
0 1
Be   0.0    0.0 0.0
Be   4.6    0.0 0.0
units angstrom    
}

set basis 6-31g
set freeze_core true
set PRINT_BASIS True
set PUREAM False
set E_CONVERGENCE 1e-14
energy('ccsd(t)')
--------------------------------------------------------------------------
/home/yhliu/psi4conda/lib/python2.7/site-packages/v2rdm_casscf/v2rdm_casscf.so loaded.

  Memory set to  24.000 GiB by Python script.

*** tstart() called on compute-0-0.local
*** at Tue Aug 15 00:27:56 2017


         ---------------------------------------------------------
                                   SCF
            by Justin Turney, Rob Parrish, and Andy Simmonett
                              RHF Reference
                        1 Threads,  24000 MiB Core
         ---------------------------------------------------------

  ==> Geometry <==

    Molecular point group: d2h
    Full point group: D_inf_h

    Geometry (in Angstrom), charge = 0, multiplicity = 1:

       Center              X                  Y                   Z               Mass       
    ------------   -----------------  -----------------  -----------------  -----------------
          BE         -2.300000000000    -0.000000000000     0.000000000000     9.012182201000
          BE          2.300000000000     0.000000000000     0.000000000000     9.012182201000

  Running in d2h symmetry.

  Rotational constants: A = ************  B =      0.17680  C =      0.17680 [cm^-1]
  Rotational constants: A = ************  B =   5300.31359  C =   5300.31359 [MHz]
  Nuclear repulsion =    1.840616377704348

  Charge       = 0
  Multiplicity = 1
  Electrons    = 8
  Nalpha       = 4
  Nbeta        = 4

  ==> Algorithm <==

  SCF Algorithm Type is PK.
  DIIS enabled.
  MOM disabled.
  Fractional occupation disabled.
  Guess Type is SAD.
  Energy threshold   = 1.00e-14
  Density threshold  = 1.00e-08
  Integral threshold = 0.00e+00

  ==> Primary Basis <==

  Basis Set: 6-31G
    Number of shells: 10
    Number of basis function: 18
    Number of Cartesian functions: 18
    Spherical Harmonics?: false
    Max angular momentum: 1

  -AO BASIS SET INFORMATION:
    Name                   = 6-31G
    Total number of shells = 10
    Number of primitives   = 28
    Number of AO           = 18
    Number of SO           = 18
    Maximum AM             = 1
    Spherical Harmonics    = FALSE

  -Contraction Scheme:
    Atom   Type   All Primitives // Shells:
   ------ ------ --------------------------
       1    BE     10s 4p // 3s 2p 
       2    BE     10s 4p // 3s 2p 

  ==> AO Basis Functions <==

    [ 6-31G ]
    cartesian
    ****
   BE   1
    S   6 1.00
                      1264.58570000           0.00194480
                       189.93681000           0.01483510
                        43.15908900           0.07209060
                        12.09866300           0.23715420
                         3.80632320           0.46919870
                         1.27289030           0.35652020
    S   3 1.00
                         3.19646310          -0.11264870
                         0.74781330          -0.22950640
                         0.21996630           1.18691670
    P   3 1.00
                         3.19646310           0.05598020
                         0.74781330           0.26155060
                         0.21996630           0.79397230
    S   1 1.00
                         0.08230990           1.00000000
    P   1 1.00
                         0.08230990           1.00000000
    ****

  ==> Pre-Iterations <==

   -------------------------------------------------------
    Irrep   Nso     Nmo     Nalpha   Nbeta   Ndocc  Nsocc
   -------------------------------------------------------
     Ag         5       5       0       0       0       0
     B1g        2       2       0       0       0       0
     B2g        2       2       0       0       0       0
     B3g        0       0       0       0       0       0
     Au         0       0       0       0       0       0
     B1u        2       2       0       0       0       0
     B2u        2       2       0       0       0       0
     B3u        5       5       0       0       0       0
   -------------------------------------------------------
    Total      18      18       4       4       4       0
   -------------------------------------------------------

  ==> Integral Setup <==

  Using in-core PK algorithm.
   Calculation information:
      Number of atoms:                   2
      Number of AO shells:              10
      Number of primitives:             28
      Number of atomic orbitals:        18
      Number of basis functions:        18

      Integral cutoff                 1.00e-12
      Number of threads:                 1

  Performing in-core PK
  Using 29412 doubles for integral storage.
  We computed 1475 shell quartets total.
  Whereas there are 1540 unique shell quartets.
  ==> DiskJK: Disk-Based J/K Matrices <==

    J tasked:                  Yes
    K tasked:                  Yes
    wK tasked:                  No
    Memory (MB):             17166
    Schwarz Cutoff:          1E-12

    OpenMP threads:              1
  Minimum eigenvalue in the overlap matrix is 1.0667714404E-01.
  Using Symmetric Orthogonalization.
  SCF Guess: Superposition of Atomic Densities via on-the-fly atomic UHF.

  ==> Iterations <==

                        Total Energy        Delta E     RMS |[F,P]|

   @RHF iter   0:   -29.13420358603731   -2.91342e+01   1.93781e-03 
   @RHF iter   1:   -29.13377132077779    4.32265e-04   4.25636e-04 
   @RHF iter   2:   -29.13380765682759   -3.63360e-05   1.32506e-04 DIIS
   @RHF iter   3:   -29.13381189404046   -4.23721e-06   9.29496e-06 DIIS
   @RHF iter   4:   -29.13381190858176   -1.45413e-08   1.05606e-06 DIIS
   @RHF iter   5:   -29.13381190871067   -1.28907e-10   6.88236e-08 DIIS
   @RHF iter   6:   -29.13381190871122   -5.57776e-13   6.35437e-09 DIIS
   @RHF iter   7:   -29.13381190871124   -1.77636e-14   3.71579e-10 DIIS
   @RHF iter   8:   -29.13381190871122    1.77636e-14   2.82354e-11 DIIS
   @RHF iter   9:   -29.13381190871123   -1.06581e-14   2.56086e-12 DIIS
   @RHF iter  10:   -29.13381190871123    7.10543e-15   3.53849e-13 DIIS

  ==> Post-Iterations <==

    Orbital Energies (a.u.)
    -----------------------

    Doubly Occupied:                                                      

       1B3u   -4.707540     1Ag    -4.707537     2Ag    -0.309057  
       2B3u   -0.293823  

    Virtual:                                                              

       3Ag     0.059732     1B1u    0.075578     1B2u    0.075578  
       1B1g    0.089201     1B2g    0.089201     3B3u    0.115173  
       4Ag     0.412924     4B3u    0.446895     2B1u    0.452937  
       2B2u    0.452937     5Ag     0.465445     2B1g    0.478442  
       2B2g    0.478442     5B3u    0.566196  

    Final Occupation by Irrep:
             Ag   B1g   B2g   B3g    Au   B1u   B2u   B3u 
    DOCC [     2,    0,    0,    0,    0,    0,    0,    2 ]

  Energy converged.

  @RHF Final Energy:   -29.13381190871123

   => Energetics <=

    Nuclear Repulsion Energy =              1.8406163777043481
    One-Electron Energy =                 -41.9129432078070394
    Two-Electron Energy =                  10.9385149213914623
    DFT Exchange-Correlation Energy =       0.0000000000000000
    Empirical Dispersion Energy =           0.0000000000000000
    PCM Polarization Energy =               0.0000000000000000
    EFP Energy =                            0.0000000000000000
    Total Energy =                        -29.1338119087112268


  Saving occupied orbitals to File 180.

*** tstop() called on compute-0-0.local at Tue Aug 15 00:27:57 2017
Module time:
	user time   =       0.17 seconds =       0.00 minutes
	system time =       0.01 seconds =       0.00 minutes
	total time  =          1 seconds =       0.02 minutes
Total time:
	user time   =       0.17 seconds =       0.00 minutes
	system time =       0.01 seconds =       0.00 minutes
	total time  =          1 seconds =       0.02 minutes


Properties will be evaluated at   0.000000,   0.000000,   0.000000 Bohr

Properties computed using the SCF density matrix

  Nuclear Dipole Moment: (a.u.)
     X:     0.0000      Y:     0.0000      Z:     0.0000

  Electronic Dipole Moment: (a.u.)
     X:     0.0000      Y:     0.0000      Z:     0.0000

  Dipole Moment: (a.u.)
     X:     0.0000      Y:     0.0000      Z:     0.0000     Total:     0.0000

  Dipole Moment: (Debye)
     X:     0.0000      Y:     0.0000      Z:     0.0000     Total:     0.0000

 MINTS: Wrapper to libmints.
   by Justin Turney

   Calculation information:
      Number of atoms:                   2
      Number of AO shells:              10
      Number of SO shells:               5
      Number of primitives:             28
      Number of atomic orbitals:        18
      Number of basis functions:        18

      Number of irreps:                  8
      Integral cutoff                 0.00e+00
      Number of functions per irrep: [   5    2    2    0    0    2    2    5 ]

 OEINTS: Overlap, kinetic, potential, dipole, and quadrupole integrals
         stored in file 35.

      Computing two-electron integrals...done
      Computed 2376 non-zero two-electron integrals.
        Stored in file 33.


*** tstart() called on compute-0-0.local
*** at Tue Aug 15 00:27:57 2017


	Wfn Parameters:
	--------------------
	Wavefunction         = CCSD_T
	Number of irreps     = 8
	Number of MOs        = 18
	Number of active MOs = 16
	AO-Basis             = NONE
	Semicanonical        = false
	Reference            = RHF
	Print Level          = 1

	IRREP	# MOs	# FZDC	# DOCC	# SOCC	# VIRT	# FZVR
	-----	-----	------	------	------	------	------
	 Ag	   5	    1	    1	    0	    3	    0
	 B1g	   2	    0	    0	    0	    2	    0
	 B2g	   2	    0	    0	    0	    2	    0
	 B3g	   0	    0	    0	    0	    0	    0
	 Au	   0	    0	    0	    0	    0	    0
	 B1u	   2	    0	    0	    0	    2	    0
	 B2u	   2	    0	    0	    0	    2	    0
	 B3u	   5	    1	    1	    0	    3	    0
	Transforming integrals...
	IWL integrals will be deleted.
	(OO|OO)...
	Presorting SO-basis two-electron integrals.
	Sorting File: SO Ints (nn|nn) nbuckets = 1
	Transforming the one-electron integrals and constructing Fock matrices
	Starting first half-transformation.
	Sorting half-transformed integrals.
	First half integral transformation complete.
	Starting second half-transformation.
	Two-electron integral transformation complete.
	(OO|OV)...
	Starting second half-transformation.
	Two-electron integral transformation complete.
	(OO|VV)...
	Starting second half-transformation.
	Two-electron integral transformation complete.
	(OV|OO)...
	Starting first half-transformation.
	Sorting half-transformed integrals.
	First half integral transformation complete.
	Starting second half-transformation.
	Two-electron integral transformation complete.
	(OV|OV)...
	Starting second half-transformation.
	Two-electron integral transformation complete.
	(OV|VV)...
	Starting second half-transformation.
	Two-electron integral transformation complete.
	(VV|OO)...
	Starting first half-transformation.
	Sorting half-transformed integrals.
	First half integral transformation complete.
	Starting second half-transformation.
	Two-electron integral transformation complete.
	(VV|OV)...
	Starting second half-transformation.
	Two-electron integral transformation complete.
	(VV|VV)...
	Starting second half-transformation.
	Two-electron integral transformation complete.
	Frozen core energy     =    -28.59987010026591

	Size of irrep 0 of <ab|cd> integrals:      0.001 (MW) /      0.009 (MB)
	Size of irrep 1 of <ab|cd> integrals:      0.001 (MW) /      0.005 (MB)
	Size of irrep 2 of <ab|cd> integrals:      0.001 (MW) /      0.005 (MB)
	Size of irrep 3 of <ab|cd> integrals:      0.000 (MW) /      0.002 (MB)
	Size of irrep 4 of <ab|cd> integrals:      0.000 (MW) /      0.002 (MB)
	Size of irrep 5 of <ab|cd> integrals:      0.001 (MW) /      0.005 (MB)
	Size of irrep 6 of <ab|cd> integrals:      0.001 (MW) /      0.005 (MB)
	Size of irrep 7 of <ab|cd> integrals:      0.001 (MW) /      0.009 (MB)
	Total:                                     0.005 (MW) /      0.041 (MB)

	Size of irrep 0 of <ia|bc> integrals:      0.000 (MW) /      0.002 (MB)
	Size of irrep 1 of <ia|bc> integrals:      0.000 (MW) /      0.001 (MB)
	Size of irrep 2 of <ia|bc> integrals:      0.000 (MW) /      0.001 (MB)
	Size of irrep 3 of <ia|bc> integrals:      0.000 (MW) /      0.000 (MB)
	Size of irrep 4 of <ia|bc> integrals:      0.000 (MW) /      0.000 (MB)
	Size of irrep 5 of <ia|bc> integrals:      0.000 (MW) /      0.001 (MB)
	Size of irrep 6 of <ia|bc> integrals:      0.000 (MW) /      0.001 (MB)
	Size of irrep 7 of <ia|bc> integrals:      0.000 (MW) /      0.002 (MB)
	Total:                                     0.001 (MW) /      0.006 (MB)

	Size of irrep 0 of tijab amplitudes:       0.000 (MW) /      0.001 (MB)
	Size of irrep 1 of tijab amplitudes:       0.000 (MW) /      0.000 (MB)
	Size of irrep 2 of tijab amplitudes:       0.000 (MW) /      0.000 (MB)
	Size of irrep 3 of tijab amplitudes:       0.000 (MW) /      0.000 (MB)
	Size of irrep 4 of tijab amplitudes:       0.000 (MW) /      0.000 (MB)
	Size of irrep 5 of tijab amplitudes:       0.000 (MW) /      0.000 (MB)
	Size of irrep 6 of tijab amplitudes:       0.000 (MW) /      0.000 (MB)
	Size of irrep 7 of tijab amplitudes:       0.000 (MW) /      0.001 (MB)
	Total:                                     0.000 (MW) /      0.001 (MB)

	Nuclear Rep. energy          =      1.84061637770435
	SCF energy                   =    -29.13381190871123
	One-electron energy          =     -3.54335726307221
	Two-electron energy          =      1.16879907692253
	Reference energy             =    -29.13381190871124

*** tstop() called on compute-0-0.local at Tue Aug 15 00:27:57 2017
Module time:
	user time   =       0.02 seconds =       0.00 minutes
	system time =       0.04 seconds =       0.00 minutes
	total time  =          0 seconds =       0.00 minutes
Total time:
	user time   =       0.23 seconds =       0.00 minutes
	system time =       0.05 seconds =       0.00 minutes
	total time  =          1 seconds =       0.02 minutes

*** tstart() called on compute-0-0.local
*** at Tue Aug 15 00:27:57 2017

            **************************
            *                        *
            *        CCENERGY        *
            *                        *
            **************************

    Nuclear Rep. energy (wfn)     =    1.840616377704348
    SCF energy          (wfn)     =  -29.133811908711227
    Reference energy    (file100) =  -29.133811908711241

    Input parameters:
    -----------------
    Wave function   =     CCSD_T
    Reference wfn   =     RHF
    Brueckner       =     No
    Memory (Mbytes) =     24000.0
    Maxiter         =     50
    R_Convergence   =     1.0e-07
    E_Convergence   =     1.0e-14
    Restart         =     Yes
    DIIS            =     Yes
    AO Basis        =     NONE
    ABCD            =     NEW
    Cache Level     =     2
    Cache Type      =     LOW
    Print Level     =     1
    Num. of threads =     1
    # Amps to Print =     10
    Print MP2 Amps? =     No
    Analyze T2 Amps =     No
    Print Pair Ener =     No
    Local CC        =     No
    SCS-MP2         =     False
    SCSN-MP2        =     False
    SCS-CCSD        =     False

MP2 correlation energy -0.0469194671767396
                Solving CC Amplitude Equations
                ------------------------------
  Iter             Energy              RMS        T1Diag      D1Diag    New D1Diag    D2Diag
  ----     ---------------------    ---------   ----------  ----------  ----------   --------
     0        -0.046919467176740    0.000e+00    0.000000    0.000000    0.000000    0.164337
     1        -0.069479773365635    1.187e-01    0.004506    0.006378    0.006378    0.247803
     2        -0.092034674068756    6.230e-02    0.011756    0.017034    0.017034    0.335939
     3        -0.091449631074746    4.694e-03    0.012534    0.018393    0.018393    0.335033
     4        -0.091883818242421    1.421e-03    0.012717    0.018694    0.018694    0.336751
     5        -0.091972090265027    2.187e-04    0.012761    0.018780    0.018780    0.337088
     6        -0.091912198743039    1.789e-04    0.012741    0.018754    0.018754    0.336851
     7        -0.091907222488016    1.383e-05    0.012739    0.018753    0.018753    0.336830
     8        -0.091909347257468    7.960e-06    0.012740    0.018754    0.018754    0.336838
     9        -0.091909462390373    2.398e-06    0.012740    0.018753    0.018753    0.336839
    10        -0.091909572474318    1.415e-06    0.012740    0.018753    0.018753    0.336839
    11        -0.091909565484311    5.233e-07    0.012740    0.018753    0.018753    0.336839
    12        -0.091909571601541    2.104e-07    0.012740    0.018753    0.018753    0.336840
    13        -0.091909570697229    6.550e-08    0.012740    0.018753    0.018753    0.336840
    14        -0.091909569804949    2.373e-08    0.012740    0.018753    0.018753    0.336840
    15        -0.091909569502140    8.057e-09    0.012740    0.018753    0.018753    0.336840
    16        -0.091909569517366    2.682e-09    0.012740    0.018753    0.018753    0.336840
    17        -0.091909569631044    9.548e-10    0.012740    0.018753    0.018753    0.336840
    18        -0.091909569706334    3.205e-10    0.012740    0.018753    0.018753    0.336840
    19        -0.091909569718282    9.693e-11    0.012740    0.018753    0.018753    0.336840
    20        -0.091909569723303    5.637e-11    0.012740    0.018753    0.018753    0.336840
    21        -0.091909569723941    3.359e-11    0.012740    0.018753    0.018753    0.336840
    22        -0.091909569724216    1.295e-11    0.012740    0.018753    0.018753    0.336840
    23        -0.091909569724281    5.507e-12    0.012740    0.018753    0.018753    0.336840
    24        -0.091909569724298    2.701e-12    0.012740    0.018753    0.018753    0.336840
    25        -0.091909569724275    1.248e-12    0.012740    0.018753    0.018753    0.336840
    26        -0.091909569724246    4.319e-13    0.012740    0.018753    0.018753    0.336840
    27        -0.091909569724245    1.586e-13    0.012740    0.018753    0.018753    0.336840
    28        -0.091909569724250    5.576e-14    0.012740    0.018753    0.018753    0.336840

    Iterations converged.


    Largest TIA Amplitudes:
              0   1         0.0164060480
              1  12        -0.0128733465
              1  11         0.0089745383
              0   0         0.0074680049
              1  13        -0.0071582793
              0   2        -0.0051729667

    Largest TIjAb Amplitudes:
      0   0   0   0        -0.0948039782
      1   1   3   3        -0.0909376474
      1   1   5   5        -0.0909376474
      0   1   0  11         0.0906290876
      1   0  11   0         0.0906290876
      1   1   0   0        -0.0902350071
      0   1   7   5        -0.0883201095
      0   1   9   3        -0.0883201095
      1   0   3   9        -0.0883201095
      1   0   5   7        -0.0883201095

    SCF energy       (wfn)                    =  -29.133811908711227
    Reference energy (file100)                =  -29.133811908711241

    Opposite-spin MP2 correlation energy      =   -0.046668397000056
    Same-spin MP2 correlation energy          =   -0.000251070176684
    MP2 correlation energy                    =   -0.046919467176740
      * MP2 total energy                      =  -29.180731375887980

    Opposite-spin CCSD correlation energy     =   -0.091643322795481
    Same-spin CCSD correlation energy         =   -0.000266246928763
    CCSD correlation energy                   =   -0.091909569724250
      * CCSD total energy                     =  -29.225721478435492


*** tstop() called on compute-0-0.local at Tue Aug 15 00:28:06 2017
Module time:
	user time   =       0.34 seconds =       0.01 minutes
	system time =       0.48 seconds =       0.01 minutes
	total time  =          9 seconds =       0.15 minutes
Total time:
	user time   =       0.57 seconds =       0.01 minutes
	system time =       0.53 seconds =       0.01 minutes
	total time  =         10 seconds =       0.17 minutes

*** tstart() called on compute-0-0.local
*** at Tue Aug 15 00:28:06 2017

            **************************
            *                        *
            *        CCTRIPLES       *
            *                        *
            **************************


    Wave function   =    CCSD_T
    Reference wfn   =      RHF

    Nuclear Rep. energy (wfn)                =    1.840616377704348
    SCF energy          (wfn)                =  -29.133811908711227
    Reference energy    (file100)            =  -29.133811908711241
    CCSD energy         (file100)            =   -0.091909569724250
    Total CCSD energy   (file100)            =  -29.225721478435492

    Number of ijk index combinations:                4
    Memory available in words        :      3000000000
    ~Words needed per explicit thread:             108
    Number of threads for explicit ijk threading:    1

    (T) energy                                =   -0.000051510685990
      * CCSD(T) total energy                  =  -29.225772989121481


*** tstop() called on compute-0-0.local at Tue Aug 15 00:28:07 2017
Module time:
	user time   =       0.01 seconds =       0.00 minutes
	system time =       0.01 seconds =       0.00 minutes
	total time  =          1 seconds =       0.02 minutes
Total time:
	user time   =       0.58 seconds =       0.01 minutes
	system time =       0.54 seconds =       0.01 minutes
	total time  =         11 seconds =       0.18 minutes

*** Psi4 exiting successfully. Buy a developer a beer!
