    -----------------------------------------------------------------------
          Psi4: An Open-Source Ab Initio Electronic Structure Package
                              Psi4 1.0.0 Driver

                          Git: Rev {master} 6a9a71b dirty

    J. M. Turney, A. C. Simmonett, R. M. Parrish, E. G. Hohenstein,
    F. A. Evangelista, J. T. Fermann, B. J. Mintz, L. A. Burns, J. J. Wilke,
    M. L. Abrams, N. J. Russ, M. L. Leininger, C. L. Janssen, E. T. Seidl,
    W. D. Allen, H. F. Schaefer, R. A. King, E. F. Valeev, C. D. Sherrill,
    and T. D. Crawford, WIREs Comput. Mol. Sci. 2, 556-565 (2012)
    (doi: 10.1002/wcms.93)

                         Additional Contributions by
    A. E. DePrince, U. Bozkaya, A. Yu. Sokolov, D. G. A. Smith, R. Di Remigio,
    R. M. Richard, J. F. Gonthier, H. R. McAlexander, M. Saitow, and
    B. P. Pritchard
    -----------------------------------------------------------------------


    Psi4 started on: Tue Aug 15 00:34:50 2017

    Process ID:   8525
    PSI4DATADIR: /home/yhliu/psi4conda/share/psi4
    Memory level set to 256.000 MB

  ==> Input File <==

--------------------------------------------------------------------------
memory 24 Gb
molecule be2 {
0 1
Be   0.0    0.0 0.0
Be   6.4    0.0 0.0
units angstrom    
}

set basis 6-31g
set freeze_core true
set PRINT_BASIS True
set PUREAM False
set E_CONVERGENCE 1e-14
energy('ccsd(t)')
--------------------------------------------------------------------------
/home/yhliu/psi4conda/lib/python2.7/site-packages/v2rdm_casscf/v2rdm_casscf.so loaded.

  Memory set to  24.000 GiB by Python script.

*** tstart() called on compute-0-0.local
*** at Tue Aug 15 00:34:51 2017


         ---------------------------------------------------------
                                   SCF
            by Justin Turney, Rob Parrish, and Andy Simmonett
                              RHF Reference
                        1 Threads,  24000 MiB Core
         ---------------------------------------------------------

  ==> Geometry <==

    Molecular point group: d2h
    Full point group: D_inf_h

    Geometry (in Angstrom), charge = 0, multiplicity = 1:

       Center              X                  Y                   Z               Mass       
    ------------   -----------------  -----------------  -----------------  -----------------
          BE         -3.200000000000    -0.000000000000     0.000000000000     9.012182201000
          BE          3.200000000000     0.000000000000     0.000000000000     9.012182201000

  Running in d2h symmetry.

  Rotational constants: A = ************  B =      0.09133  C =      0.09133 [cm^-1]
  Rotational constants: A = ************  B =   2738.15028  C =   2738.15028 [MHz]
  Nuclear repulsion =    1.322943021475000

  Charge       = 0
  Multiplicity = 1
  Electrons    = 8
  Nalpha       = 4
  Nbeta        = 4

  ==> Algorithm <==

  SCF Algorithm Type is PK.
  DIIS enabled.
  MOM disabled.
  Fractional occupation disabled.
  Guess Type is SAD.
  Energy threshold   = 1.00e-14
  Density threshold  = 1.00e-08
  Integral threshold = 0.00e+00

  ==> Primary Basis <==

  Basis Set: 6-31G
    Number of shells: 10
    Number of basis function: 18
    Number of Cartesian functions: 18
    Spherical Harmonics?: false
    Max angular momentum: 1

  -AO BASIS SET INFORMATION:
    Name                   = 6-31G
    Total number of shells = 10
    Number of primitives   = 28
    Number of AO           = 18
    Number of SO           = 18
    Maximum AM             = 1
    Spherical Harmonics    = FALSE

  -Contraction Scheme:
    Atom   Type   All Primitives // Shells:
   ------ ------ --------------------------
       1    BE     10s 4p // 3s 2p 
       2    BE     10s 4p // 3s 2p 

  ==> AO Basis Functions <==

    [ 6-31G ]
    cartesian
    ****
   BE   1
    S   6 1.00
                      1264.58570000           0.00194480
                       189.93681000           0.01483510
                        43.15908900           0.07209060
                        12.09866300           0.23715420
                         3.80632320           0.46919870
                         1.27289030           0.35652020
    S   3 1.00
                         3.19646310          -0.11264870
                         0.74781330          -0.22950640
                         0.21996630           1.18691670
    P   3 1.00
                         3.19646310           0.05598020
                         0.74781330           0.26155060
                         0.21996630           0.79397230
    S   1 1.00
                         0.08230990           1.00000000
    P   1 1.00
                         0.08230990           1.00000000
    ****

  ==> Pre-Iterations <==

   -------------------------------------------------------
    Irrep   Nso     Nmo     Nalpha   Nbeta   Ndocc  Nsocc
   -------------------------------------------------------
     Ag         5       5       0       0       0       0
     B1g        2       2       0       0       0       0
     B2g        2       2       0       0       0       0
     B3g        0       0       0       0       0       0
     Au         0       0       0       0       0       0
     B1u        2       2       0       0       0       0
     B2u        2       2       0       0       0       0
     B3u        5       5       0       0       0       0
   -------------------------------------------------------
    Total      18      18       4       4       4       0
   -------------------------------------------------------

  ==> Integral Setup <==

  Using in-core PK algorithm.
   Calculation information:
      Number of atoms:                   2
      Number of AO shells:              10
      Number of primitives:             28
      Number of atomic orbitals:        18
      Number of basis functions:        18

      Integral cutoff                 1.00e-12
      Number of threads:                 1

  Performing in-core PK
  Using 29412 doubles for integral storage.
  We computed 1284 shell quartets total.
  Whereas there are 1540 unique shell quartets.
  ==> DiskJK: Disk-Based J/K Matrices <==

    J tasked:                  Yes
    K tasked:                  Yes
    wK tasked:                  No
    Memory (MB):             17166
    Schwarz Cutoff:          1E-12

    OpenMP threads:              1
  Minimum eigenvalue in the overlap matrix is 1.2740037134E-01.
  Using Symmetric Orthogonalization.
  SCF Guess: Superposition of Atomic Densities via on-the-fly atomic UHF.

  ==> Iterations <==

                        Total Energy        Delta E     RMS |[F,P]|

   @RHF iter   0:   -29.13352956214771   -2.91335e+01   4.39665e-04 
   @RHF iter   1:   -29.13355316380438   -2.36017e-05   7.73285e-05 
   @RHF iter   2:   -29.13355419331191   -1.02951e-06   1.62751e-05 DIIS
   @RHF iter   3:   -29.13355424704434   -5.37324e-08   8.44059e-07 DIIS
   @RHF iter   4:   -29.13355424716844   -1.24103e-10   9.24072e-08 DIIS
   @RHF iter   5:   -29.13355424716958   -1.14397e-12   3.54472e-09 DIIS
   @RHF iter   6:   -29.13355424716958    0.00000e+00   5.39838e-10 DIIS

  ==> Post-Iterations <==

    Orbital Energies (a.u.)
    -----------------------

    Doubly Occupied:                                                      

       1B3u   -4.706933     1Ag    -4.706933     2Ag    -0.301901  
       2B3u   -0.300709  

    Virtual:                                                              

       3Ag     0.076368     1B1u    0.081761     1B2u    0.081761  
       1B1g    0.083089     1B2g    0.083089     3B3u    0.088436  
       4Ag     0.430333     4B3u    0.442892     5Ag     0.454381  
       2B1u    0.463115     2B2u    0.463115     2B1g    0.466730  
       2B2g    0.466730     5B3u    0.484812  

    Final Occupation by Irrep:
             Ag   B1g   B2g   B3g    Au   B1u   B2u   B3u 
    DOCC [     2,    0,    0,    0,    0,    0,    0,    2 ]

  Energy converged.

  @RHF Final Energy:   -29.13355424716958

   => Energetics <=

    Nuclear Repulsion Energy =              1.3229430214750000
    One-Electron Energy =                 -40.8800428047808566
    Two-Electron Energy =                  10.4235455361362703
    DFT Exchange-Correlation Energy =       0.0000000000000000
    Empirical Dispersion Energy =           0.0000000000000000
    PCM Polarization Energy =               0.0000000000000000
    EFP Energy =                            0.0000000000000000
    Total Energy =                        -29.1335542471695881


  Saving occupied orbitals to File 180.

*** tstop() called on compute-0-0.local at Tue Aug 15 00:34:51 2017
Module time:
	user time   =       0.16 seconds =       0.00 minutes
	system time =       0.01 seconds =       0.00 minutes
	total time  =          0 seconds =       0.00 minutes
Total time:
	user time   =       0.16 seconds =       0.00 minutes
	system time =       0.01 seconds =       0.00 minutes
	total time  =          0 seconds =       0.00 minutes


Properties will be evaluated at   0.000000,   0.000000,   0.000000 Bohr

Properties computed using the SCF density matrix

  Nuclear Dipole Moment: (a.u.)
     X:     0.0000      Y:     0.0000      Z:     0.0000

  Electronic Dipole Moment: (a.u.)
     X:     0.0000      Y:     0.0000      Z:     0.0000

  Dipole Moment: (a.u.)
     X:     0.0000      Y:     0.0000      Z:     0.0000     Total:     0.0000

  Dipole Moment: (Debye)
     X:     0.0000      Y:     0.0000      Z:     0.0000     Total:     0.0000

 MINTS: Wrapper to libmints.
   by Justin Turney

   Calculation information:
      Number of atoms:                   2
      Number of AO shells:              10
      Number of SO shells:               5
      Number of primitives:             28
      Number of atomic orbitals:        18
      Number of basis functions:        18

      Number of irreps:                  8
      Integral cutoff                 0.00e+00
      Number of functions per irrep: [   5    2    2    0    0    2    2    5 ]

 OEINTS: Overlap, kinetic, potential, dipole, and quadrupole integrals
         stored in file 35.

      Computing two-electron integrals...done
      Computed 2376 non-zero two-electron integrals.
        Stored in file 33.


*** tstart() called on compute-0-0.local
*** at Tue Aug 15 00:34:51 2017


	Wfn Parameters:
	--------------------
	Wavefunction         = CCSD_T
	Number of irreps     = 8
	Number of MOs        = 18
	Number of active MOs = 16
	AO-Basis             = NONE
	Semicanonical        = false
	Reference            = RHF
	Print Level          = 1

	IRREP	# MOs	# FZDC	# DOCC	# SOCC	# VIRT	# FZVR
	-----	-----	------	------	------	------	------
	 Ag	   5	    1	    1	    0	    3	    0
	 B1g	   2	    0	    0	    0	    2	    0
	 B2g	   2	    0	    0	    0	    2	    0
	 B3g	   0	    0	    0	    0	    0	    0
	 Au	   0	    0	    0	    0	    0	    0
	 B1u	   2	    0	    0	    0	    2	    0
	 B2u	   2	    0	    0	    0	    2	    0
	 B3u	   5	    1	    1	    0	    3	    0
	Transforming integrals...
	IWL integrals will be deleted.
	(OO|OO)...
	Presorting SO-basis two-electron integrals.
	Sorting File: SO Ints (nn|nn) nbuckets = 1
	Transforming the one-electron integrals and constructing Fock matrices
	Starting first half-transformation.
	Sorting half-transformed integrals.
	First half integral transformation complete.
	Starting second half-transformation.
	Two-electron integral transformation complete.
	(OO|OV)...
	Starting second half-transformation.
	Two-electron integral transformation complete.
	(OO|VV)...
	Starting second half-transformation.
	Two-electron integral transformation complete.
	(OV|OO)...
	Starting first half-transformation.
	Sorting half-transformed integrals.
	First half integral transformation complete.
	Starting second half-transformation.
	Two-electron integral transformation complete.
	(OV|OV)...
	Starting second half-transformation.
	Two-electron integral transformation complete.
	(OV|VV)...
	Starting second half-transformation.
	Two-electron integral transformation complete.
	(VV|OO)...
	Starting first half-transformation.
	Sorting half-transformed integrals.
	First half integral transformation complete.
	Starting second half-transformation.
	Two-electron integral transformation complete.
	(VV|OV)...
	Starting second half-transformation.
	Two-electron integral transformation complete.
	(VV|VV)...
	Starting second half-transformation.
	Two-electron integral transformation complete.
	Frozen core energy     =    -28.21161146919179

	Size of irrep 0 of <ab|cd> integrals:      0.001 (MW) /      0.009 (MB)
	Size of irrep 1 of <ab|cd> integrals:      0.001 (MW) /      0.005 (MB)
	Size of irrep 2 of <ab|cd> integrals:      0.001 (MW) /      0.005 (MB)
	Size of irrep 3 of <ab|cd> integrals:      0.000 (MW) /      0.002 (MB)
	Size of irrep 4 of <ab|cd> integrals:      0.000 (MW) /      0.002 (MB)
	Size of irrep 5 of <ab|cd> integrals:      0.001 (MW) /      0.005 (MB)
	Size of irrep 6 of <ab|cd> integrals:      0.001 (MW) /      0.005 (MB)
	Size of irrep 7 of <ab|cd> integrals:      0.001 (MW) /      0.009 (MB)
	Total:                                     0.005 (MW) /      0.041 (MB)

	Size of irrep 0 of <ia|bc> integrals:      0.000 (MW) /      0.002 (MB)
	Size of irrep 1 of <ia|bc> integrals:      0.000 (MW) /      0.001 (MB)
	Size of irrep 2 of <ia|bc> integrals:      0.000 (MW) /      0.001 (MB)
	Size of irrep 3 of <ia|bc> integrals:      0.000 (MW) /      0.000 (MB)
	Size of irrep 4 of <ia|bc> integrals:      0.000 (MW) /      0.000 (MB)
	Size of irrep 5 of <ia|bc> integrals:      0.000 (MW) /      0.001 (MB)
	Size of irrep 6 of <ia|bc> integrals:      0.000 (MW) /      0.001 (MB)
	Size of irrep 7 of <ia|bc> integrals:      0.000 (MW) /      0.002 (MB)
	Total:                                     0.001 (MW) /      0.006 (MB)

	Size of irrep 0 of tijab amplitudes:       0.000 (MW) /      0.001 (MB)
	Size of irrep 1 of tijab amplitudes:       0.000 (MW) /      0.000 (MB)
	Size of irrep 2 of tijab amplitudes:       0.000 (MW) /      0.000 (MB)
	Size of irrep 3 of tijab amplitudes:       0.000 (MW) /      0.000 (MB)
	Size of irrep 4 of tijab amplitudes:       0.000 (MW) /      0.000 (MB)
	Size of irrep 5 of tijab amplitudes:       0.000 (MW) /      0.000 (MB)
	Size of irrep 6 of tijab amplitudes:       0.000 (MW) /      0.000 (MB)
	Size of irrep 7 of tijab amplitudes:       0.000 (MW) /      0.001 (MB)
	Total:                                     0.000 (MW) /      0.001 (MB)

	Nuclear Rep. energy          =      1.32294302147500
	SCF energy                   =    -29.13355424716958
	One-electron energy          =     -3.28455113394120
	Two-electron energy          =      1.03966533448835
	Reference energy             =    -29.13355424716964

*** tstop() called on compute-0-0.local at Tue Aug 15 00:34:52 2017
Module time:
	user time   =       0.02 seconds =       0.00 minutes
	system time =       0.03 seconds =       0.00 minutes
	total time  =          1 seconds =       0.02 minutes
Total time:
	user time   =       0.21 seconds =       0.00 minutes
	system time =       0.05 seconds =       0.00 minutes
	total time  =          1 seconds =       0.02 minutes

*** tstart() called on compute-0-0.local
*** at Tue Aug 15 00:34:52 2017

            **************************
            *                        *
            *        CCENERGY        *
            *                        *
            **************************

    Nuclear Rep. energy (wfn)     =    1.322943021475000
    SCF energy          (wfn)     =  -29.133554247169585
    Reference energy    (file100) =  -29.133554247169641

    Input parameters:
    -----------------
    Wave function   =     CCSD_T
    Reference wfn   =     RHF
    Brueckner       =     No
    Memory (Mbytes) =     24000.0
    Maxiter         =     50
    R_Convergence   =     1.0e-07
    E_Convergence   =     1.0e-14
    Restart         =     Yes
    DIIS            =     Yes
    AO Basis        =     NONE
    ABCD            =     NEW
    Cache Level     =     2
    Cache Type      =     LOW
    Print Level     =     1
    Num. of threads =     1
    # Amps to Print =     10
    Print MP2 Amps? =     No
    Analyze T2 Amps =     No
    Print Pair Ener =     No
    Local CC        =     No
    SCS-MP2         =     False
    SCSN-MP2        =     False
    SCS-CCSD        =     False

MP2 correlation energy -0.0465953561248088
                Solving CC Amplitude Equations
                ------------------------------
  Iter             Energy              RMS        T1Diag      D1Diag    New D1Diag    D2Diag
  ----     ---------------------    ---------   ----------  ----------  ----------   --------
     0        -0.046595356124809    0.000e+00    0.000000    0.000000    0.000000    0.162245
     1        -0.069234819002103    1.194e-01    0.004414    0.006290    0.006290    0.245167
     2        -0.092226250159047    6.283e-02    0.011232    0.016058    0.016058    0.333630
     3        -0.091527311235004    4.106e-03    0.011703    0.016754    0.016754    0.332186
     4        -0.091969734269849    1.265e-03    0.011819    0.016923    0.016923    0.333906
     5        -0.091973305346171    6.020e-05    0.011808    0.016908    0.016908    0.333926
     6        -0.091970671875755    1.347e-05    0.011806    0.016906    0.016906    0.333917
     7        -0.091969897894114    3.087e-06    0.011805    0.016905    0.016905    0.333915
     8        -0.091970395698001    2.075e-06    0.011805    0.016905    0.016905    0.333917
     9        -0.091970536076907    5.868e-07    0.011805    0.016905    0.016905    0.333917
    10        -0.091970570481370    1.786e-07    0.011805    0.016905    0.016905    0.333917
    11        -0.091970570801901    4.273e-08    0.011805    0.016905    0.016905    0.333917
    12        -0.091970571223257    1.723e-08    0.011805    0.016905    0.016905    0.333917
    13        -0.091970571326723    5.330e-09    0.011805    0.016905    0.016905    0.333917
    14        -0.091970571363729    2.649e-09    0.011805    0.016905    0.016905    0.333917
    15        -0.091970571388270    1.697e-09    0.011805    0.016905    0.016905    0.333917
    16        -0.091970571368714    4.521e-10    0.011805    0.016905    0.016905    0.333917
    17        -0.091970571358560    1.449e-10    0.011805    0.016905    0.016905    0.333917
    18        -0.091970571353260    6.315e-11    0.011805    0.016905    0.016905    0.333917
    19        -0.091970571352692    1.356e-11    0.011805    0.016905    0.016905    0.333917
    20        -0.091970571352524    4.854e-12    0.011805    0.016905    0.016905    0.333917
    21        -0.091970571352557    1.723e-12    0.011805    0.016905    0.016905    0.333917
    22        -0.091970571352570    7.107e-13    0.011805    0.016905    0.016905    0.333917
    23        -0.091970571352585    2.419e-13    0.011805    0.016905    0.016905    0.333917
    24        -0.091970571352590    1.206e-13    0.011805    0.016905    0.016905    0.333917
    25        -0.091970571352589    7.580e-14    0.011805    0.016905    0.016905    0.333917

    Iterations converged.


    Largest TIA Amplitudes:
              1  12        -0.0159793707
              0   1        -0.0154650286
              0   2        -0.0067141855
              1  13        -0.0038401683
              1  11         0.0012593567
              0   0         0.0012325678

    Largest TIjAb Amplitudes:
      1   1  11  11        -0.0884266293
      0   1   0  11         0.0878820590
      1   0  11   0         0.0878820590
      0   0   0   0        -0.0873805671
      1   1   3   3        -0.0872974637
      1   1   5   5        -0.0872974637
      0   1   7   5        -0.0870209710
      0   1   9   3        -0.0870209710
      1   0   3   9        -0.0870209710
      1   0   5   7        -0.0870209710

    SCF energy       (wfn)                    =  -29.133554247169585
    Reference energy (file100)                =  -29.133554247169641

    Opposite-spin MP2 correlation energy      =   -0.046563158292665
    Same-spin MP2 correlation energy          =   -0.000032197832144
    MP2 correlation energy                    =   -0.046595356124809
      * MP2 total energy                      =  -29.180149603294449

    Opposite-spin CCSD correlation energy     =   -0.091937396535685
    Same-spin CCSD correlation energy         =   -0.000033174827462
    CCSD correlation energy                   =   -0.091970571352589
      * CCSD total energy                     =  -29.225524818522231


*** tstop() called on compute-0-0.local at Tue Aug 15 00:34:59 2017
Module time:
	user time   =       0.29 seconds =       0.00 minutes
	system time =       0.39 seconds =       0.01 minutes
	total time  =          7 seconds =       0.12 minutes
Total time:
	user time   =       0.50 seconds =       0.01 minutes
	system time =       0.44 seconds =       0.01 minutes
	total time  =          8 seconds =       0.13 minutes

*** tstart() called on compute-0-0.local
*** at Tue Aug 15 00:34:59 2017

            **************************
            *                        *
            *        CCTRIPLES       *
            *                        *
            **************************


    Wave function   =    CCSD_T
    Reference wfn   =      RHF

    Nuclear Rep. energy (wfn)                =    1.322943021475000
    SCF energy          (wfn)                =  -29.133554247169585
    Reference energy    (file100)            =  -29.133554247169641
    CCSD energy         (file100)            =   -0.091970571352589
    Total CCSD energy   (file100)            =  -29.225524818522231

    Number of ijk index combinations:                4
    Memory available in words        :      3000000000
    ~Words needed per explicit thread:             108
    Number of threads for explicit ijk threading:    1

    (T) energy                                =   -0.000003229505435
      * CCSD(T) total energy                  =  -29.225528048027666


*** tstop() called on compute-0-0.local at Tue Aug 15 00:35:42 2017
Module time:
	user time   =       0.01 seconds =       0.00 minutes
	system time =       0.02 seconds =       0.00 minutes
	total time  =         43 seconds =       0.72 minutes
Total time:
	user time   =       0.51 seconds =       0.01 minutes
	system time =       0.46 seconds =       0.01 minutes
	total time  =         51 seconds =       0.85 minutes

*** Psi4 exiting successfully. Buy a developer a beer!
