    -----------------------------------------------------------------------
          Psi4: An Open-Source Ab Initio Electronic Structure Package
                              Psi4 1.0.0 Driver

                          Git: Rev {master} 6a9a71b dirty

    J. M. Turney, A. C. Simmonett, R. M. Parrish, E. G. Hohenstein,
    F. A. Evangelista, J. T. Fermann, B. J. Mintz, L. A. Burns, J. J. Wilke,
    M. L. Abrams, N. J. Russ, M. L. Leininger, C. L. Janssen, E. T. Seidl,
    W. D. Allen, H. F. Schaefer, R. A. King, E. F. Valeev, C. D. Sherrill,
    and T. D. Crawford, WIREs Comput. Mol. Sci. 2, 556-565 (2012)
    (doi: 10.1002/wcms.93)

                         Additional Contributions by
    A. E. DePrince, U. Bozkaya, A. Yu. Sokolov, D. G. A. Smith, R. Di Remigio,
    R. M. Richard, J. F. Gonthier, H. R. McAlexander, M. Saitow, and
    B. P. Pritchard
    -----------------------------------------------------------------------


    Psi4 started on: Tue Aug 15 00:43:45 2017

    Process ID:   9374
    PSI4DATADIR: /home/yhliu/psi4conda/share/psi4
    Memory level set to 256.000 MB

  ==> Input File <==

--------------------------------------------------------------------------
memory 24 Gb
molecule be3 {
0 1
Be  -5.2    0.0 0.0
Be   0.0    0.0 0.0
Be   5.2    0.0 0.0
units angstrom    
}

set basis 6-31g
set freeze_core true
set PRINT_BASIS True
set PUREAM False
set E_CONVERGENCE 1e-14
energy('ccsd(t)')
--------------------------------------------------------------------------
/home/yhliu/psi4conda/lib/python2.7/site-packages/v2rdm_casscf/v2rdm_casscf.so loaded.

  Memory set to  24.000 GiB by Python script.

*** tstart() called on compute-0-0.local
*** at Tue Aug 15 00:43:46 2017


         ---------------------------------------------------------
                                   SCF
            by Justin Turney, Rob Parrish, and Andy Simmonett
                              RHF Reference
                        1 Threads,  24000 MiB Core
         ---------------------------------------------------------

  ==> Geometry <==

    Molecular point group: d2h
    Full point group: D_inf_h

    Geometry (in Angstrom), charge = 0, multiplicity = 1:

       Center              X                  Y                   Z               Mass       
    ------------   -----------------  -----------------  -----------------  -----------------
          BE         -5.200000000000    -0.000000000000     0.000000000000     9.012182201000
          BE          0.000000000000     0.000000000000     0.000000000000     9.012182201000
          BE          5.200000000000     0.000000000000     0.000000000000     9.012182201000

  Running in d2h symmetry.

  Rotational constants: A = ************  B =      0.03459  C =      0.03459 [cm^-1]
  Rotational constants: A = ************  B =   1036.93265  C =   1036.93265 [MHz]
  Nuclear repulsion =    4.070593912230771

  Charge       = 0
  Multiplicity = 1
  Electrons    = 12
  Nalpha       = 6
  Nbeta        = 6

  ==> Algorithm <==

  SCF Algorithm Type is PK.
  DIIS enabled.
  MOM disabled.
  Fractional occupation disabled.
  Guess Type is SAD.
  Energy threshold   = 1.00e-14
  Density threshold  = 1.00e-08
  Integral threshold = 0.00e+00

  ==> Primary Basis <==

  Basis Set: 6-31G
    Number of shells: 15
    Number of basis function: 27
    Number of Cartesian functions: 27
    Spherical Harmonics?: false
    Max angular momentum: 1

  -AO BASIS SET INFORMATION:
    Name                   = 6-31G
    Total number of shells = 15
    Number of primitives   = 42
    Number of AO           = 27
    Number of SO           = 27
    Maximum AM             = 1
    Spherical Harmonics    = FALSE

  -Contraction Scheme:
    Atom   Type   All Primitives // Shells:
   ------ ------ --------------------------
       1    BE     10s 4p // 3s 2p 
       2    BE     10s 4p // 3s 2p 
       3    BE     10s 4p // 3s 2p 

  ==> AO Basis Functions <==

    [ 6-31G ]
    cartesian
    ****
   BE   1
    S   6 1.00
                      1264.58570000           0.00194480
                       189.93681000           0.01483510
                        43.15908900           0.07209060
                        12.09866300           0.23715420
                         3.80632320           0.46919870
                         1.27289030           0.35652020
    S   3 1.00
                         3.19646310          -0.11264870
                         0.74781330          -0.22950640
                         0.21996630           1.18691670
    P   3 1.00
                         3.19646310           0.05598020
                         0.74781330           0.26155060
                         0.21996630           0.79397230
    S   1 1.00
                         0.08230990           1.00000000
    P   1 1.00
                         0.08230990           1.00000000
    ****
   BE   2
    S   6 1.00
                      1264.58570000           0.00194480
                       189.93681000           0.01483510
                        43.15908900           0.07209060
                        12.09866300           0.23715420
                         3.80632320           0.46919870
                         1.27289030           0.35652020
    S   3 1.00
                         3.19646310          -0.11264870
                         0.74781330          -0.22950640
                         0.21996630           1.18691670
    P   3 1.00
                         3.19646310           0.05598020
                         0.74781330           0.26155060
                         0.21996630           0.79397230
    S   1 1.00
                         0.08230990           1.00000000
    P   1 1.00
                         0.08230990           1.00000000
    ****

  ==> Pre-Iterations <==

   -------------------------------------------------------
    Irrep   Nso     Nmo     Nalpha   Nbeta   Ndocc  Nsocc
   -------------------------------------------------------
     Ag         8       8       0       0       0       0
     B1g        2       2       0       0       0       0
     B2g        2       2       0       0       0       0
     B3g        0       0       0       0       0       0
     Au         0       0       0       0       0       0
     B1u        4       4       0       0       0       0
     B2u        4       4       0       0       0       0
     B3u        7       7       0       0       0       0
   -------------------------------------------------------
    Total      27      27       6       6       6       0
   -------------------------------------------------------

  ==> Integral Setup <==

  Using in-core PK algorithm.
   Calculation information:
      Number of atoms:                   3
      Number of AO shells:              15
      Number of primitives:             42
      Number of atomic orbitals:        27
      Number of basis functions:        27

      Integral cutoff                 1.00e-12
      Number of threads:                 1

  Performing in-core PK
  Using 143262 doubles for integral storage.
  We computed 5112 shell quartets total.
  Whereas there are 7260 unique shell quartets.
  ==> DiskJK: Disk-Based J/K Matrices <==

    J tasked:                  Yes
    K tasked:                  Yes
    wK tasked:                  No
    Memory (MB):             17166
    Schwarz Cutoff:          1E-12

    OpenMP threads:              1
  Minimum eigenvalue in the overlap matrix is 1.1719255466E-01.
  Using Symmetric Orthogonalization.
  SCF Guess: Superposition of Atomic Densities via on-the-fly atomic UHF.

  ==> Iterations <==

                        Total Energy        Delta E     RMS |[F,P]|

   @RHF iter   0:   -43.70050371606955   -4.37005e+01   1.20399e-03 
   @RHF iter   1:   -43.70066750519592   -1.63789e-04   2.63360e-04 
   @RHF iter   2:   -43.70069814548036   -3.06403e-05   7.26523e-05 DIIS
   @RHF iter   3:   -43.70070091712829   -2.77165e-06   4.19224e-06 DIIS
   @RHF iter   4:   -43.70070092426706   -7.13877e-09   4.31909e-07 DIIS
   @RHF iter   5:   -43.70070092432710   -6.00409e-11   2.39580e-08 DIIS
   @RHF iter   6:   -43.70070092432727   -1.70530e-13   2.41223e-09 DIIS
   @RHF iter   7:   -43.70070092432727    0.00000e+00   2.07519e-10 DIIS

  ==> Post-Iterations <==

    Orbital Energies (a.u.)
    -----------------------

    Doubly Occupied:                                                      

       1Ag    -4.707635     1B3u   -4.707252     2Ag    -4.707252  
       3Ag    -0.306323     2B3u   -0.301476     4Ag    -0.296357  

    Virtual:                                                              

       3B3u    0.058386     1B2u    0.077417     1B1u    0.077417  
       1B1g    0.082353     1B2g    0.082353     5Ag     0.082812  
       2B2u    0.087272     2B1u    0.087272     4B3u    0.111445  
       6Ag     0.404183     5B3u    0.414750     7Ag     0.449224  
       6B3u    0.453045     3B2u    0.453844     3B1u    0.453844  
       2B1g    0.464745     2B2g    0.464745     4B2u    0.476751  
       4B1u    0.476751     8Ag     0.512614     7B3u    0.557451  

    Final Occupation by Irrep:
             Ag   B1g   B2g   B3g    Au   B1u   B2u   B3u 
    DOCC [     4,    0,    0,    0,    0,    0,    0,    2 ]

  Energy converged.

  @RHF Final Energy:   -43.70070092432727

   => Energetics <=

    Nuclear Repulsion Energy =              4.0705939122307706
    One-Electron Energy =                 -65.4900017184821763
    Two-Electron Energy =                  17.7187068819241276
    DFT Exchange-Correlation Energy =       0.0000000000000000
    Empirical Dispersion Energy =           0.0000000000000000
    PCM Polarization Energy =               0.0000000000000000
    EFP Energy =                            0.0000000000000000
    Total Energy =                        -43.7007009243272790


  Saving occupied orbitals to File 180.

*** tstop() called on compute-0-0.local at Tue Aug 15 00:43:46 2017
Module time:
	user time   =       0.22 seconds =       0.00 minutes
	system time =       0.01 seconds =       0.00 minutes
	total time  =          0 seconds =       0.00 minutes
Total time:
	user time   =       0.22 seconds =       0.00 minutes
	system time =       0.01 seconds =       0.00 minutes
	total time  =          0 seconds =       0.00 minutes


Properties will be evaluated at   0.000000,   0.000000,   0.000000 Bohr

Properties computed using the SCF density matrix

  Nuclear Dipole Moment: (a.u.)
     X:     0.0000      Y:     0.0000      Z:     0.0000

  Electronic Dipole Moment: (a.u.)
     X:     0.0000      Y:     0.0000      Z:     0.0000

  Dipole Moment: (a.u.)
     X:     0.0000      Y:     0.0000      Z:     0.0000     Total:     0.0000

  Dipole Moment: (Debye)
     X:     0.0000      Y:     0.0000      Z:     0.0000     Total:     0.0000

 MINTS: Wrapper to libmints.
   by Justin Turney

   Calculation information:
      Number of atoms:                   3
      Number of AO shells:              15
      Number of SO shells:              10
      Number of primitives:             42
      Number of atomic orbitals:        27
      Number of basis functions:        27

      Number of irreps:                  8
      Integral cutoff                 0.00e+00
      Number of functions per irrep: [   8    2    2    0    0    4    4    7 ]

 OEINTS: Overlap, kinetic, potential, dipole, and quadrupole integrals
         stored in file 35.

      Computing two-electron integrals...done
      Computed 11211 non-zero two-electron integrals.
        Stored in file 33.


*** tstart() called on compute-0-0.local
*** at Tue Aug 15 00:43:47 2017


	Wfn Parameters:
	--------------------
	Wavefunction         = CCSD_T
	Number of irreps     = 8
	Number of MOs        = 27
	Number of active MOs = 24
	AO-Basis             = NONE
	Semicanonical        = false
	Reference            = RHF
	Print Level          = 1

	IRREP	# MOs	# FZDC	# DOCC	# SOCC	# VIRT	# FZVR
	-----	-----	------	------	------	------	------
	 Ag	   8	    2	    2	    0	    4	    0
	 B1g	   2	    0	    0	    0	    2	    0
	 B2g	   2	    0	    0	    0	    2	    0
	 B3g	   0	    0	    0	    0	    0	    0
	 Au	   0	    0	    0	    0	    0	    0
	 B1u	   4	    0	    0	    0	    4	    0
	 B2u	   4	    0	    0	    0	    4	    0
	 B3u	   7	    1	    1	    0	    5	    0
	Transforming integrals...
	IWL integrals will be deleted.
	(OO|OO)...
	Presorting SO-basis two-electron integrals.
	Sorting File: SO Ints (nn|nn) nbuckets = 1
	Transforming the one-electron integrals and constructing Fock matrices
	Starting first half-transformation.
	Sorting half-transformed integrals.
	First half integral transformation complete.
	Starting second half-transformation.
	Two-electron integral transformation complete.
	(OO|OV)...
	Starting second half-transformation.
	Two-electron integral transformation complete.
	(OO|VV)...
	Starting second half-transformation.
	Two-electron integral transformation complete.
	(OV|OO)...
	Starting first half-transformation.
	Sorting half-transformed integrals.
	First half integral transformation complete.
	Starting second half-transformation.
	Two-electron integral transformation complete.
	(OV|OV)...
	Starting second half-transformation.
	Two-electron integral transformation complete.
	(OV|VV)...
	Starting second half-transformation.
	Two-electron integral transformation complete.
	(VV|OO)...
	Starting first half-transformation.
	Sorting half-transformed integrals.
	First half integral transformation complete.
	Starting second half-transformation.
	Two-electron integral transformation complete.
	(VV|OV)...
	Starting second half-transformation.
	Two-electron integral transformation complete.
	(VV|VV)...
	Starting second half-transformation.
	Two-electron integral transformation complete.
	Frozen core energy     =    -43.88205382298302

	Size of irrep 0 of <ab|cd> integrals:      0.007 (MW) /      0.052 (MB)
	Size of irrep 1 of <ab|cd> integrals:      0.003 (MW) /      0.025 (MB)
	Size of irrep 2 of <ab|cd> integrals:      0.003 (MW) /      0.025 (MB)
	Size of irrep 3 of <ab|cd> integrals:      0.002 (MW) /      0.013 (MB)
	Size of irrep 4 of <ab|cd> integrals:      0.001 (MW) /      0.008 (MB)
	Size of irrep 5 of <ab|cd> integrals:      0.003 (MW) /      0.022 (MB)
	Size of irrep 6 of <ab|cd> integrals:      0.003 (MW) /      0.022 (MB)
	Size of irrep 7 of <ab|cd> integrals:      0.005 (MW) /      0.041 (MB)
	Total:                                     0.026 (MW) /      0.208 (MB)

	Size of irrep 0 of <ia|bc> integrals:      0.001 (MW) /      0.008 (MB)
	Size of irrep 1 of <ia|bc> integrals:      0.000 (MW) /      0.004 (MB)
	Size of irrep 2 of <ia|bc> integrals:      0.000 (MW) /      0.004 (MB)
	Size of irrep 3 of <ia|bc> integrals:      0.000 (MW) /      0.000 (MB)
	Size of irrep 4 of <ia|bc> integrals:      0.000 (MW) /      0.000 (MB)
	Size of irrep 5 of <ia|bc> integrals:      0.001 (MW) /      0.004 (MB)
	Size of irrep 6 of <ia|bc> integrals:      0.001 (MW) /      0.004 (MB)
	Size of irrep 7 of <ia|bc> integrals:      0.001 (MW) /      0.008 (MB)
	Total:                                     0.004 (MW) /      0.032 (MB)

	Size of irrep 0 of tijab amplitudes:       0.000 (MW) /      0.003 (MB)
	Size of irrep 1 of tijab amplitudes:       0.000 (MW) /      0.000 (MB)
	Size of irrep 2 of tijab amplitudes:       0.000 (MW) /      0.000 (MB)
	Size of irrep 3 of tijab amplitudes:       0.000 (MW) /      0.000 (MB)
	Size of irrep 4 of tijab amplitudes:       0.000 (MW) /      0.000 (MB)
	Size of irrep 5 of tijab amplitudes:       0.000 (MW) /      0.000 (MB)
	Size of irrep 6 of tijab amplitudes:       0.000 (MW) /      0.000 (MB)
	Size of irrep 7 of tijab amplitudes:       0.000 (MW) /      0.002 (MB)
	Total:                                     0.001 (MW) /      0.006 (MB)

	Nuclear Rep. energy          =      4.07059391223077
	SCF energy                   =    -43.70070092432727
	One-electron energy          =     -5.97017020867909
	Two-electron energy          =      2.08092919510287
	Reference energy             =    -43.70070092432847

*** tstop() called on compute-0-0.local at Tue Aug 15 00:43:48 2017
Module time:
	user time   =       0.04 seconds =       0.00 minutes
	system time =       0.05 seconds =       0.00 minutes
	total time  =          1 seconds =       0.02 minutes
Total time:
	user time   =       0.32 seconds =       0.01 minutes
	system time =       0.06 seconds =       0.00 minutes
	total time  =          2 seconds =       0.03 minutes

*** tstart() called on compute-0-0.local
*** at Tue Aug 15 00:43:48 2017

            **************************
            *                        *
            *        CCENERGY        *
            *                        *
            **************************

    Nuclear Rep. energy (wfn)     =    4.070593912230771
    SCF energy          (wfn)     =  -43.700700924327272
    Reference energy    (file100) =  -43.700700924328473

    Input parameters:
    -----------------
    Wave function   =     CCSD_T
    Reference wfn   =     RHF
    Brueckner       =     No
    Memory (Mbytes) =     24000.0
    Maxiter         =     50
    R_Convergence   =     1.0e-07
    E_Convergence   =     1.0e-14
    Restart         =     Yes
    DIIS            =     Yes
    AO Basis        =     NONE
    ABCD            =     NEW
    Cache Level     =     2
    Cache Type      =     LOW
    Print Level     =     1
    Num. of threads =     1
    # Amps to Print =     10
    Print MP2 Amps? =     No
    Analyze T2 Amps =     No
    Print Pair Ener =     No
    Local CC        =     No
    SCS-MP2         =     False
    SCSN-MP2        =     False
    SCS-CCSD        =     False

MP2 correlation energy -0.0702023076754620
                Solving CC Amplitude Equations
                ------------------------------
  Iter             Energy              RMS        T1Diag      D1Diag    New D1Diag    D2Diag
  ----     ---------------------    ---------   ----------  ----------  ----------   --------
     0        -0.070202307675462    0.000e+00    0.000000    0.000000    0.000000    0.163779
     1        -0.104102692794165    1.457e-01    0.004447    0.006423    0.006423    0.247078
     2        -0.138193691928811    7.654e-02    0.011458    0.016868    0.016868    0.335262
     3        -0.137246078671735    5.452e-03    0.012095    0.017989    0.017989    0.334083
     4        -0.137964235802599    1.650e-03    0.012255    0.018253    0.018253    0.335961
     5        -0.138001096343391    1.950e-04    0.012262    0.018276    0.018276    0.336057
     6        -0.137929220965821    1.716e-04    0.012246    0.018253    0.018253    0.335871
     7        -0.137925251757883    1.077e-05    0.012245    0.018252    0.018252    0.335862
     8        -0.137927357004263    7.493e-06    0.012245    0.018252    0.018252    0.335868
     9        -0.137928026756640    2.061e-06    0.012245    0.018252    0.018252    0.335870
    10        -0.137928043147949    7.128e-07    0.012245    0.018252    0.018252    0.335870
    11        -0.137928034891759    4.303e-07    0.012245    0.018252    0.018252    0.335870
    12        -0.137928038187512    1.838e-07    0.012245    0.018252    0.018252    0.335870
    13        -0.137928041173695    9.165e-08    0.012245    0.018252    0.018252    0.335870
    14        -0.137928041924774    3.894e-08    0.012245    0.018252    0.018252    0.335870
    15        -0.137928041411155    1.698e-08    0.012245    0.018252    0.018252    0.335870
    16        -0.137928041041570    8.788e-09    0.012245    0.018252    0.018252    0.335870
    17        -0.137928040888488    2.720e-09    0.012245    0.018252    0.018252    0.335870
    18        -0.137928040869392    8.771e-10    0.012245    0.018252    0.018252    0.335870
    19        -0.137928040893827    3.751e-10    0.012245    0.018252    0.018252    0.335870
    20        -0.137928040905649    1.747e-10    0.012245    0.018252    0.018252    0.335870
    21        -0.137928040916786    8.276e-11    0.012245    0.018252    0.018252    0.335870
    22        -0.137928040919868    4.273e-11    0.012245    0.018252    0.018252    0.335870
    23        -0.137928040920069    2.646e-11    0.012245    0.018252    0.018252    0.335870
    24        -0.137928040919309    1.516e-11    0.012245    0.018252    0.018252    0.335870
    25        -0.137928040918898    8.429e-12    0.012245    0.018252    0.018252    0.335870
    26        -0.137928040918788    4.453e-12    0.012245    0.018252    0.018252    0.335870
    27        -0.137928040918877    2.004e-12    0.012245    0.018252    0.018252    0.335870
    28        -0.137928040918966    8.601e-13    0.012245    0.018252    0.018252    0.335870
    29        -0.137928040918993    3.850e-13    0.012245    0.018252    0.018252    0.335870
    30        -0.137928040918998    1.899e-13    0.012245    0.018252    0.018252    0.335870
    31        -0.137928040918991    7.815e-14    0.012245    0.018252    0.018252    0.335870

    Iterations converged.


    Largest TIA Amplitudes:
              0   1         0.0162730138
              2  18         0.0121653423
              1   2        -0.0116385102
              2  19        -0.0098480024
              1   3        -0.0094414227
              0   2        -0.0057243078
              1   0        -0.0052034634
              2  16         0.0049921470
              2  17         0.0049653079
              0   0         0.0048058743

    Largest TIjAb Amplitudes:
      2   2   4   4        -0.0860714009
      2   2   6   6        -0.0860714009
      2   2   0   0        -0.0848869236
      0   0  16  16        -0.0690036508
      0   1  16  17         0.0677608285
      1   0  17  16         0.0677608285
      1   1   9   9        -0.0670810159
      1   1  13  13        -0.0670810159
      1   1  17  17        -0.0664591880
      0   1   8   9        -0.0662115866

    SCF energy       (wfn)                    =  -43.700700924327272
    Reference energy (file100)                =  -43.700700924328473

    Opposite-spin MP2 correlation energy      =   -0.069960475636650
    Same-spin MP2 correlation energy          =   -0.000241832038812
    MP2 correlation energy                    =   -0.070202307675462
      * MP2 total energy                      =  -43.770903232003931

    Opposite-spin CCSD correlation energy     =   -0.137676521311841
    Same-spin CCSD correlation energy         =   -0.000251519613891
    CCSD correlation energy                   =   -0.137928040918991
      * CCSD total energy                     =  -43.838628965247466


*** tstop() called on compute-0-0.local at Tue Aug 15 00:44:04 2017
Module time:
	user time   =       0.46 seconds =       0.01 minutes
	system time =       0.56 seconds =       0.01 minutes
	total time  =         16 seconds =       0.27 minutes
Total time:
	user time   =       0.78 seconds =       0.01 minutes
	system time =       0.62 seconds =       0.01 minutes
	total time  =         18 seconds =       0.30 minutes

*** tstart() called on compute-0-0.local
*** at Tue Aug 15 00:44:04 2017

            **************************
            *                        *
            *        CCTRIPLES       *
            *                        *
            **************************


    Wave function   =    CCSD_T
    Reference wfn   =      RHF

    Nuclear Rep. energy (wfn)                =    4.070593912230771
    SCF energy          (wfn)                =  -43.700700924327272
    Reference energy    (file100)            =  -43.700700924328473
    CCSD energy         (file100)            =   -0.137928040918991
    Total CCSD energy   (file100)            =  -43.838628965247466

    Number of ijk index combinations:               10
    Memory available in words        :      3000000000
    ~Words needed per explicit thread:             500
    Number of threads for explicit ijk threading:    1

    (T) energy                                =   -0.000037844867350
      * CCSD(T) total energy                  =  -43.838666810114816


*** tstop() called on compute-0-0.local at Tue Aug 15 00:44:05 2017
Module time:
	user time   =       0.02 seconds =       0.00 minutes
	system time =       0.00 seconds =       0.00 minutes
	total time  =          1 seconds =       0.02 minutes
Total time:
	user time   =       0.80 seconds =       0.01 minutes
	system time =       0.62 seconds =       0.01 minutes
	total time  =         19 seconds =       0.32 minutes

*** Psi4 exiting successfully. Buy a developer a beer!
