    -----------------------------------------------------------------------
          Psi4: An Open-Source Ab Initio Electronic Structure Package
                              Psi4 1.0.0 Driver

                          Git: Rev {master} 6a9a71b dirty

    J. M. Turney, A. C. Simmonett, R. M. Parrish, E. G. Hohenstein,
    F. A. Evangelista, J. T. Fermann, B. J. Mintz, L. A. Burns, J. J. Wilke,
    M. L. Abrams, N. J. Russ, M. L. Leininger, C. L. Janssen, E. T. Seidl,
    W. D. Allen, H. F. Schaefer, R. A. King, E. F. Valeev, C. D. Sherrill,
    and T. D. Crawford, WIREs Comput. Mol. Sci. 2, 556-565 (2012)
    (doi: 10.1002/wcms.93)

                         Additional Contributions by
    A. E. DePrince, U. Bozkaya, A. Yu. Sokolov, D. G. A. Smith, R. Di Remigio,
    R. M. Richard, J. F. Gonthier, H. R. McAlexander, M. Saitow, and
    B. P. Pritchard
    -----------------------------------------------------------------------


    Psi4 started on: Tue Aug 15 00:40:10 2017

    Process ID:   9180
    PSI4DATADIR: /home/yhliu/psi4conda/share/psi4
    Memory level set to 256.000 MB

  ==> Input File <==

--------------------------------------------------------------------------
memory 24 Gb
molecule be3 {
0 1
Be  -4.3    0.0 0.0
Be   0.0    0.0 0.0
Be   4.3    0.0 0.0
units angstrom    
}

set basis 6-31g
set freeze_core true
set PRINT_BASIS True
set PUREAM False
set E_CONVERGENCE 1e-14
energy('ccsd(t)')
--------------------------------------------------------------------------
/home/yhliu/psi4conda/lib/python2.7/site-packages/v2rdm_casscf/v2rdm_casscf.so loaded.

  Memory set to  24.000 GiB by Python script.

*** tstart() called on compute-0-0.local
*** at Tue Aug 15 00:40:25 2017


         ---------------------------------------------------------
                                   SCF
            by Justin Turney, Rob Parrish, and Andy Simmonett
                              RHF Reference
                        1 Threads,  24000 MiB Core
         ---------------------------------------------------------

  ==> Geometry <==

    Molecular point group: d2h
    Full point group: D_inf_h

    Geometry (in Angstrom), charge = 0, multiplicity = 1:

       Center              X                  Y                   Z               Mass       
    ------------   -----------------  -----------------  -----------------  -----------------
          BE         -4.300000000000    -0.000000000000     0.000000000000     9.012182201000
          BE          0.000000000000     0.000000000000     0.000000000000     9.012182201000
          BE          4.300000000000     0.000000000000     0.000000000000     9.012182201000

  Running in d2h symmetry.

  Rotational constants: A = ************  B =      0.05058  C =      0.05058 [cm^-1]
  Rotational constants: A = ************  B =   1516.42287  C =   1516.42287 [MHz]
  Nuclear repulsion =    4.922578684558141

  Charge       = 0
  Multiplicity = 1
  Electrons    = 12
  Nalpha       = 6
  Nbeta        = 6

  ==> Algorithm <==

  SCF Algorithm Type is PK.
  DIIS enabled.
  MOM disabled.
  Fractional occupation disabled.
  Guess Type is SAD.
  Energy threshold   = 1.00e-14
  Density threshold  = 1.00e-08
  Integral threshold = 0.00e+00

  ==> Primary Basis <==

  Basis Set: 6-31G
    Number of shells: 15
    Number of basis function: 27
    Number of Cartesian functions: 27
    Spherical Harmonics?: false
    Max angular momentum: 1

  -AO BASIS SET INFORMATION:
    Name                   = 6-31G
    Total number of shells = 15
    Number of primitives   = 42
    Number of AO           = 27
    Number of SO           = 27
    Maximum AM             = 1
    Spherical Harmonics    = FALSE

  -Contraction Scheme:
    Atom   Type   All Primitives // Shells:
   ------ ------ --------------------------
       1    BE     10s 4p // 3s 2p 
       2    BE     10s 4p // 3s 2p 
       3    BE     10s 4p // 3s 2p 

  ==> AO Basis Functions <==

    [ 6-31G ]
    cartesian
    ****
   BE   1
    S   6 1.00
                      1264.58570000           0.00194480
                       189.93681000           0.01483510
                        43.15908900           0.07209060
                        12.09866300           0.23715420
                         3.80632320           0.46919870
                         1.27289030           0.35652020
    S   3 1.00
                         3.19646310          -0.11264870
                         0.74781330          -0.22950640
                         0.21996630           1.18691670
    P   3 1.00
                         3.19646310           0.05598020
                         0.74781330           0.26155060
                         0.21996630           0.79397230
    S   1 1.00
                         0.08230990           1.00000000
    P   1 1.00
                         0.08230990           1.00000000
    ****
   BE   2
    S   6 1.00
                      1264.58570000           0.00194480
                       189.93681000           0.01483510
                        43.15908900           0.07209060
                        12.09866300           0.23715420
                         3.80632320           0.46919870
                         1.27289030           0.35652020
    S   3 1.00
                         3.19646310          -0.11264870
                         0.74781330          -0.22950640
                         0.21996630           1.18691670
    P   3 1.00
                         3.19646310           0.05598020
                         0.74781330           0.26155060
                         0.21996630           0.79397230
    S   1 1.00
                         0.08230990           1.00000000
    P   1 1.00
                         0.08230990           1.00000000
    ****

  ==> Pre-Iterations <==

   -------------------------------------------------------
    Irrep   Nso     Nmo     Nalpha   Nbeta   Ndocc  Nsocc
   -------------------------------------------------------
     Ag         8       8       0       0       0       0
     B1g        2       2       0       0       0       0
     B2g        2       2       0       0       0       0
     B3g        0       0       0       0       0       0
     Au         0       0       0       0       0       0
     B1u        4       4       0       0       0       0
     B2u        4       4       0       0       0       0
     B3u        7       7       0       0       0       0
   -------------------------------------------------------
    Total      27      27       6       6       6       0
   -------------------------------------------------------

  ==> Integral Setup <==

  Using in-core PK algorithm.
   Calculation information:
      Number of atoms:                   3
      Number of AO shells:              15
      Number of primitives:             42
      Number of atomic orbitals:        27
      Number of basis functions:        27

      Integral cutoff                 1.00e-12
      Number of threads:                 1

  Performing in-core PK
  Using 143262 doubles for integral storage.
  We computed 5861 shell quartets total.
  Whereas there are 7260 unique shell quartets.
  ==> DiskJK: Disk-Based J/K Matrices <==

    J tasked:                  Yes
    K tasked:                  Yes
    wK tasked:                  No
    Memory (MB):             17166
    Schwarz Cutoff:          1E-12

    OpenMP threads:              1
  Minimum eigenvalue in the overlap matrix is 9.5614279280E-02.
  Using Symmetric Orthogonalization.
  SCF Guess: Superposition of Atomic Densities via on-the-fly atomic UHF.

  ==> Iterations <==

                        Total Energy        Delta E     RMS |[F,P]|

   @RHF iter   0:   -43.70348257190879   -4.37035e+01   2.27499e-03 
   @RHF iter   1:   -43.70060043461387    2.88214e-03   4.73097e-04 
   @RHF iter   2:   -43.70070843212188   -1.07998e-04   1.59853e-04 DIIS
   @RHF iter   3:   -43.70072335995085   -1.49278e-05   1.01919e-05 DIIS
   @RHF iter   4:   -43.70072340198963   -4.20388e-08   1.00966e-06 DIIS
   @RHF iter   5:   -43.70072340228425   -2.94619e-10   9.96326e-08 DIIS
   @RHF iter   6:   -43.70072340228726   -3.01270e-12   6.39738e-09 DIIS
   @RHF iter   7:   -43.70072340228723    2.84217e-14   8.75912e-10 DIIS
   @RHF iter   8:   -43.70072340228726   -2.84217e-14   1.01877e-10 DIIS
   @RHF iter   9:   -43.70072340228726    0.00000e+00   8.56392e-12 DIIS

  ==> Post-Iterations <==

    Orbital Energies (a.u.)
    -----------------------

    Doubly Occupied:                                                      

       1Ag    -4.708395     1B3u   -4.707464     2Ag    -4.707464  
       3Ag    -0.316667     2B3u   -0.302140     4Ag    -0.285584  

    Virtual:                                                              

       3B3u    0.048000     1B2u    0.069753     1B1u    0.069753  
       1B2g    0.082280     1B1g    0.082280     5Ag     0.088868  
       2B2u    0.095748     2B1u    0.095748     4B3u    0.144302  
       6Ag     0.411476     5B3u    0.433405     3B2u    0.447208  
       3B1u    0.447208     7Ag     0.457593     2B2g    0.464522  
       2B1g    0.464522     6B3u    0.476252     4B2u    0.489110  
       4B1u    0.489110     8Ag     0.552417     7B3u    0.613695  

    Final Occupation by Irrep:
             Ag   B1g   B2g   B3g    Au   B1u   B2u   B3u 
    DOCC [     4,    0,    0,    0,    0,    0,    0,    2 ]

  Energy converged.

  @RHF Final Energy:   -43.70072340228726

   => Energetics <=

    Nuclear Repulsion Energy =              4.9225786845581405
    One-Electron Energy =                 -67.1911772167664765
    Two-Electron Energy =                  18.5678751299210703
    DFT Exchange-Correlation Energy =       0.0000000000000000
    Empirical Dispersion Energy =           0.0000000000000000
    PCM Polarization Energy =               0.0000000000000000
    EFP Energy =                            0.0000000000000000
    Total Energy =                        -43.7007234022872666


  Saving occupied orbitals to File 180.

*** tstop() called on compute-0-0.local at Tue Aug 15 00:40:27 2017
Module time:
	user time   =       0.22 seconds =       0.00 minutes
	system time =       0.01 seconds =       0.00 minutes
	total time  =          2 seconds =       0.03 minutes
Total time:
	user time   =       0.22 seconds =       0.00 minutes
	system time =       0.01 seconds =       0.00 minutes
	total time  =          2 seconds =       0.03 minutes


Properties will be evaluated at   0.000000,   0.000000,   0.000000 Bohr

Properties computed using the SCF density matrix

  Nuclear Dipole Moment: (a.u.)
     X:     0.0000      Y:     0.0000      Z:     0.0000

  Electronic Dipole Moment: (a.u.)
     X:     0.0000      Y:     0.0000      Z:     0.0000

  Dipole Moment: (a.u.)
     X:     0.0000      Y:     0.0000      Z:     0.0000     Total:     0.0000

  Dipole Moment: (Debye)
     X:     0.0000      Y:     0.0000      Z:     0.0000     Total:     0.0000

 MINTS: Wrapper to libmints.
   by Justin Turney

   Calculation information:
      Number of atoms:                   3
      Number of AO shells:              15
      Number of SO shells:              10
      Number of primitives:             42
      Number of atomic orbitals:        27
      Number of basis functions:        27

      Number of irreps:                  8
      Integral cutoff                 0.00e+00
      Number of functions per irrep: [   8    2    2    0    0    4    4    7 ]

 OEINTS: Overlap, kinetic, potential, dipole, and quadrupole integrals
         stored in file 35.

      Computing two-electron integrals...done
      Computed 11211 non-zero two-electron integrals.
        Stored in file 33.


*** tstart() called on compute-0-0.local
*** at Tue Aug 15 00:40:27 2017


	Wfn Parameters:
	--------------------
	Wavefunction         = CCSD_T
	Number of irreps     = 8
	Number of MOs        = 27
	Number of active MOs = 24
	AO-Basis             = NONE
	Semicanonical        = false
	Reference            = RHF
	Print Level          = 1

	IRREP	# MOs	# FZDC	# DOCC	# SOCC	# VIRT	# FZVR
	-----	-----	------	------	------	------	------
	 Ag	   8	    2	    2	    0	    4	    0
	 B1g	   2	    0	    0	    0	    2	    0
	 B2g	   2	    0	    0	    0	    2	    0
	 B3g	   0	    0	    0	    0	    0	    0
	 Au	   0	    0	    0	    0	    0	    0
	 B1u	   4	    0	    0	    0	    4	    0
	 B2u	   4	    0	    0	    0	    4	    0
	 B3u	   7	    1	    1	    0	    5	    0
	Transforming integrals...
	IWL integrals will be deleted.
	(OO|OO)...
	Presorting SO-basis two-electron integrals.
	Sorting File: SO Ints (nn|nn) nbuckets = 1
	Transforming the one-electron integrals and constructing Fock matrices
	Starting first half-transformation.
	Sorting half-transformed integrals.
	First half integral transformation complete.
	Starting second half-transformation.
	Two-electron integral transformation complete.
	(OO|OV)...
	Starting second half-transformation.
	Two-electron integral transformation complete.
	(OO|VV)...
	Starting second half-transformation.
	Two-electron integral transformation complete.
	(OV|OO)...
	Starting first half-transformation.
	Sorting half-transformed integrals.
	First half integral transformation complete.
	Starting second half-transformation.
	Two-electron integral transformation complete.
	(OV|OV)...
	Starting second half-transformation.
	Two-electron integral transformation complete.
	(OV|VV)...
	Starting second half-transformation.
	Two-electron integral transformation complete.
	(VV|OO)...
	Starting first half-transformation.
	Sorting half-transformed integrals.
	First half integral transformation complete.
	Starting second half-transformation.
	Two-electron integral transformation complete.
	(VV|OV)...
	Starting second half-transformation.
	Two-electron integral transformation complete.
	(VV|VV)...
	Starting second half-transformation.
	Two-electron integral transformation complete.
	Frozen core energy     =    -44.52104926687834

	Size of irrep 0 of <ab|cd> integrals:      0.007 (MW) /      0.052 (MB)
	Size of irrep 1 of <ab|cd> integrals:      0.003 (MW) /      0.025 (MB)
	Size of irrep 2 of <ab|cd> integrals:      0.003 (MW) /      0.025 (MB)
	Size of irrep 3 of <ab|cd> integrals:      0.002 (MW) /      0.013 (MB)
	Size of irrep 4 of <ab|cd> integrals:      0.001 (MW) /      0.008 (MB)
	Size of irrep 5 of <ab|cd> integrals:      0.003 (MW) /      0.022 (MB)
	Size of irrep 6 of <ab|cd> integrals:      0.003 (MW) /      0.022 (MB)
	Size of irrep 7 of <ab|cd> integrals:      0.005 (MW) /      0.041 (MB)
	Total:                                     0.026 (MW) /      0.208 (MB)

	Size of irrep 0 of <ia|bc> integrals:      0.001 (MW) /      0.008 (MB)
	Size of irrep 1 of <ia|bc> integrals:      0.000 (MW) /      0.004 (MB)
	Size of irrep 2 of <ia|bc> integrals:      0.000 (MW) /      0.004 (MB)
	Size of irrep 3 of <ia|bc> integrals:      0.000 (MW) /      0.000 (MB)
	Size of irrep 4 of <ia|bc> integrals:      0.000 (MW) /      0.000 (MB)
	Size of irrep 5 of <ia|bc> integrals:      0.001 (MW) /      0.004 (MB)
	Size of irrep 6 of <ia|bc> integrals:      0.001 (MW) /      0.004 (MB)
	Size of irrep 7 of <ia|bc> integrals:      0.001 (MW) /      0.008 (MB)
	Total:                                     0.004 (MW) /      0.032 (MB)

	Size of irrep 0 of tijab amplitudes:       0.000 (MW) /      0.003 (MB)
	Size of irrep 1 of tijab amplitudes:       0.000 (MW) /      0.000 (MB)
	Size of irrep 2 of tijab amplitudes:       0.000 (MW) /      0.000 (MB)
	Size of irrep 3 of tijab amplitudes:       0.000 (MW) /      0.000 (MB)
	Size of irrep 4 of tijab amplitudes:       0.000 (MW) /      0.000 (MB)
	Size of irrep 5 of tijab amplitudes:       0.000 (MW) /      0.000 (MB)
	Size of irrep 6 of tijab amplitudes:       0.000 (MW) /      0.000 (MB)
	Size of irrep 7 of tijab amplitudes:       0.000 (MW) /      0.002 (MB)
	Total:                                     0.001 (MW) /      0.006 (MB)

	Nuclear Rep. energy          =      4.92257868455814
	SCF energy                   =    -43.70072340228726
	One-electron energy          =     -6.39572351542660
	Two-electron energy          =      2.29347069545891
	Reference energy             =    -43.70072340228789

*** tstop() called on compute-0-0.local at Tue Aug 15 00:40:27 2017
Module time:
	user time   =       0.03 seconds =       0.00 minutes
	system time =       0.04 seconds =       0.00 minutes
	total time  =          0 seconds =       0.00 minutes
Total time:
	user time   =       0.32 seconds =       0.01 minutes
	system time =       0.06 seconds =       0.00 minutes
	total time  =          2 seconds =       0.03 minutes

*** tstart() called on compute-0-0.local
*** at Tue Aug 15 00:40:27 2017

            **************************
            *                        *
            *        CCENERGY        *
            *                        *
            **************************

    Nuclear Rep. energy (wfn)     =    4.922578684558141
    SCF energy          (wfn)     =  -43.700723402287259
    Reference energy    (file100) =  -43.700723402287892

    Input parameters:
    -----------------
    Wave function   =     CCSD_T
    Reference wfn   =     RHF
    Brueckner       =     No
    Memory (Mbytes) =     24000.0
    Maxiter         =     50
    R_Convergence   =     1.0e-07
    E_Convergence   =     1.0e-14
    Restart         =     Yes
    DIIS            =     Yes
    AO Basis        =     NONE
    ABCD            =     NEW
    Cache Level     =     2
    Cache Type      =     LOW
    Print Level     =     1
    Num. of threads =     1
    # Amps to Print =     10
    Print MP2 Amps? =     No
    Analyze T2 Amps =     No
    Print Pair Ener =     No
    Local CC        =     No
    SCS-MP2         =     False
    SCSN-MP2        =     False
    SCS-CCSD        =     False

MP2 correlation energy -0.0709282485905377
                Solving CC Amplitude Equations
                ------------------------------
  Iter             Energy              RMS        T1Diag      D1Diag    New D1Diag    D2Diag
  ----     ---------------------    ---------   ----------  ----------  ----------   --------
     0        -0.070928248590538    0.000e+00    0.000000    0.000000    0.000000    0.166862
     1        -0.104640165883465    1.444e-01    0.004504    0.006678    0.006678    0.250864
     2        -0.137772584408095    7.562e-02    0.012066    0.018160    0.018160    0.338593
     3        -0.137080150170073    6.580e-03    0.013196    0.019978    0.019978    0.338308
     4        -0.137724315216206    1.991e-03    0.013463    0.020417    0.020417    0.340071
     5        -0.137903671571903    4.247e-04    0.013555    0.020573    0.020573    0.340539
     6        -0.137801771953532    2.650e-04    0.013531    0.020536    0.020536    0.340266
     7        -0.137785227434823    4.157e-05    0.013528    0.020530    0.020530    0.340222
     8        -0.137792523962580    2.813e-05    0.013530    0.020532    0.020532    0.340243
     9        -0.137794246004958    9.569e-06    0.013530    0.020531    0.020531    0.340248
    10        -0.137794362378108    5.272e-06    0.013530    0.020531    0.020531    0.340249
    11        -0.137794255495222    2.671e-06    0.013529    0.020530    0.020530    0.340249
    12        -0.137794266919915    8.173e-07    0.013529    0.020530    0.020530    0.340249
    13        -0.137794278520708    4.042e-07    0.013529    0.020530    0.020530    0.340249
    14        -0.137794280814942    1.535e-07    0.013529    0.020530    0.020530    0.340249
    15        -0.137794279265559    5.849e-08    0.013529    0.020530    0.020530    0.340249
    16        -0.137794278155099    2.436e-08    0.013529    0.020530    0.020530    0.340249
    17        -0.137794277882711    9.196e-09    0.013529    0.020530    0.020530    0.340249
    18        -0.137794277579435    3.753e-09    0.013529    0.020530    0.020530    0.340249
    19        -0.137794277467118    2.256e-09    0.013529    0.020530    0.020530    0.340249
    20        -0.137794277456126    1.242e-09    0.013529    0.020530    0.020530    0.340249
    21        -0.137794277487163    6.474e-10    0.013529    0.020530    0.020530    0.340249
    22        -0.137794277491509    2.764e-10    0.013529    0.020530    0.020530    0.340249
    23        -0.137794277489745    1.563e-10    0.013529    0.020530    0.020530    0.340249
    24        -0.137794277487137    8.280e-11    0.013529    0.020530    0.020530    0.340249
    25        -0.137794277486195    4.075e-11    0.013529    0.020530    0.020530    0.340249
    26        -0.137794277486159    1.954e-11    0.013529    0.020530    0.020530    0.340249
    27        -0.137794277486288    9.332e-12    0.013529    0.020530    0.020530    0.340249
    28        -0.137794277486537    3.075e-12    0.013529    0.020530    0.020530    0.340249
    29        -0.137794277486655    1.466e-12    0.013529    0.020530    0.020530    0.340249
    30        -0.137794277486701    8.305e-13    0.013529    0.020530    0.020530    0.340249
    31        -0.137794277486698    4.828e-13    0.013529    0.020530    0.020530    0.340249
    32        -0.137794277486691    3.007e-13    0.013529    0.020530    0.020530    0.340249

    Iterations converged.


    Largest TIA Amplitudes:
              0   1         0.0168231209
              2  18         0.0144558153
              1   0         0.0115981790
              2  17         0.0102773829
              1   2        -0.0097720103
              1   3        -0.0094607644
              2  16         0.0092310228
              0   0        -0.0081623558
              2  20        -0.0045436905
              0   2        -0.0019984090

    Largest TIjAb Amplitudes:
      2   2   4   4        -0.0854955123
      2   2   6   6        -0.0854955123
      2   2   0   0        -0.0833426444
      0   0  16  16        -0.0750957551
      1   1  16  16        -0.0712910743
      0   1  16  17         0.0699198480
      1   0  17  16         0.0699198480
      1   1   9   9        -0.0695623887
      1   1  13  13        -0.0695623887
      0   1   8   9        -0.0673099847

    SCF energy       (wfn)                    =  -43.700723402287259
    Reference energy (file100)                =  -43.700723402287892

    Opposite-spin MP2 correlation energy      =   -0.070168592215012
    Same-spin MP2 correlation energy          =   -0.000759656375526
    MP2 correlation energy                    =   -0.070928248590538
      * MP2 total energy                      =  -43.771651650878432

    Opposite-spin CCSD correlation energy     =   -0.136970857472368
    Same-spin CCSD correlation energy         =   -0.000823420014108
    CCSD correlation energy                   =   -0.137794277486691
      * CCSD total energy                     =  -43.838517679774583


*** tstop() called on compute-0-0.local at Tue Aug 15 00:40:42 2017
Module time:
	user time   =       0.39 seconds =       0.01 minutes
	system time =       0.44 seconds =       0.01 minutes
	total time  =         15 seconds =       0.25 minutes
Total time:
	user time   =       0.71 seconds =       0.01 minutes
	system time =       0.50 seconds =       0.01 minutes
	total time  =         17 seconds =       0.28 minutes

*** tstart() called on compute-0-0.local
*** at Tue Aug 15 00:40:42 2017

            **************************
            *                        *
            *        CCTRIPLES       *
            *                        *
            **************************


    Wave function   =    CCSD_T
    Reference wfn   =      RHF

    Nuclear Rep. energy (wfn)                =    4.922578684558141
    SCF energy          (wfn)                =  -43.700723402287259
    Reference energy    (file100)            =  -43.700723402287892
    CCSD energy         (file100)            =   -0.137794277486691
    Total CCSD energy   (file100)            =  -43.838517679774583

    Number of ijk index combinations:               10
    Memory available in words        :      3000000000
    ~Words needed per explicit thread:             500
    Number of threads for explicit ijk threading:    1

    (T) energy                                =   -0.000180076371195
      * CCSD(T) total energy                  =  -43.838697756145777


*** tstop() called on compute-0-0.local at Tue Aug 15 00:40:42 2017
Module time:
	user time   =       0.01 seconds =       0.00 minutes
	system time =       0.02 seconds =       0.00 minutes
	total time  =          0 seconds =       0.00 minutes
Total time:
	user time   =       0.72 seconds =       0.01 minutes
	system time =       0.52 seconds =       0.01 minutes
	total time  =         17 seconds =       0.28 minutes

*** Psi4 exiting successfully. Buy a developer a beer!
