    -----------------------------------------------------------------------
          Psi4: An Open-Source Ab Initio Electronic Structure Package
                              Psi4 1.0.0 Driver

                          Git: Rev {master} 6a9a71b dirty

    J. M. Turney, A. C. Simmonett, R. M. Parrish, E. G. Hohenstein,
    F. A. Evangelista, J. T. Fermann, B. J. Mintz, L. A. Burns, J. J. Wilke,
    M. L. Abrams, N. J. Russ, M. L. Leininger, C. L. Janssen, E. T. Seidl,
    W. D. Allen, H. F. Schaefer, R. A. King, E. F. Valeev, C. D. Sherrill,
    and T. D. Crawford, WIREs Comput. Mol. Sci. 2, 556-565 (2012)
    (doi: 10.1002/wcms.93)

                         Additional Contributions by
    A. E. DePrince, U. Bozkaya, A. Yu. Sokolov, D. G. A. Smith, R. Di Remigio,
    R. M. Richard, J. F. Gonthier, H. R. McAlexander, M. Saitow, and
    B. P. Pritchard
    -----------------------------------------------------------------------


    Psi4 started on: Tue Aug 15 00:47:32 2017

    Process ID:   9538
    PSI4DATADIR: /home/yhliu/psi4conda/share/psi4
    Memory level set to 256.000 MB

  ==> Input File <==

--------------------------------------------------------------------------
memory 24 Gb
molecule be3 {
0 1
Be  -6.0    0.0 0.0
Be   0.0    0.0 0.0
Be   6.0    0.0 0.0
units angstrom    
}

set basis 6-31g
set freeze_core true
set PRINT_BASIS True
set PUREAM False
set E_CONVERGENCE 1e-14
energy('ccsd(t)')
--------------------------------------------------------------------------
/home/yhliu/psi4conda/lib/python2.7/site-packages/v2rdm_casscf/v2rdm_casscf.so loaded.

  Memory set to  24.000 GiB by Python script.

*** tstart() called on compute-0-0.local
*** at Tue Aug 15 00:47:32 2017


         ---------------------------------------------------------
                                   SCF
            by Justin Turney, Rob Parrish, and Andy Simmonett
                              RHF Reference
                        1 Threads,  24000 MiB Core
         ---------------------------------------------------------

  ==> Geometry <==

    Molecular point group: d2h
    Full point group: D_inf_h

    Geometry (in Angstrom), charge = 0, multiplicity = 1:

       Center              X                  Y                   Z               Mass       
    ------------   -----------------  -----------------  -----------------  -----------------
          BE         -6.000000000000    -0.000000000000     0.000000000000     9.012182201000
          BE          0.000000000000     0.000000000000     0.000000000000     9.012182201000
          BE          6.000000000000     0.000000000000     0.000000000000     9.012182201000

  Running in d2h symmetry.

  Rotational constants: A = ************  B =      0.02598  C =      0.02598 [cm^-1]
  Rotational constants: A = ************  B =    778.85164  C =    778.85164 [MHz]
  Nuclear repulsion =    3.527848057266668

  Charge       = 0
  Multiplicity = 1
  Electrons    = 12
  Nalpha       = 6
  Nbeta        = 6

  ==> Algorithm <==

  SCF Algorithm Type is PK.
  DIIS enabled.
  MOM disabled.
  Fractional occupation disabled.
  Guess Type is SAD.
  Energy threshold   = 1.00e-14
  Density threshold  = 1.00e-08
  Integral threshold = 0.00e+00

  ==> Primary Basis <==

  Basis Set: 6-31G
    Number of shells: 15
    Number of basis function: 27
    Number of Cartesian functions: 27
    Spherical Harmonics?: false
    Max angular momentum: 1

  -AO BASIS SET INFORMATION:
    Name                   = 6-31G
    Total number of shells = 15
    Number of primitives   = 42
    Number of AO           = 27
    Number of SO           = 27
    Maximum AM             = 1
    Spherical Harmonics    = FALSE

  -Contraction Scheme:
    Atom   Type   All Primitives // Shells:
   ------ ------ --------------------------
       1    BE     10s 4p // 3s 2p 
       2    BE     10s 4p // 3s 2p 
       3    BE     10s 4p // 3s 2p 

  ==> AO Basis Functions <==

    [ 6-31G ]
    cartesian
    ****
   BE   1
    S   6 1.00
                      1264.58570000           0.00194480
                       189.93681000           0.01483510
                        43.15908900           0.07209060
                        12.09866300           0.23715420
                         3.80632320           0.46919870
                         1.27289030           0.35652020
    S   3 1.00
                         3.19646310          -0.11264870
                         0.74781330          -0.22950640
                         0.21996630           1.18691670
    P   3 1.00
                         3.19646310           0.05598020
                         0.74781330           0.26155060
                         0.21996630           0.79397230
    S   1 1.00
                         0.08230990           1.00000000
    P   1 1.00
                         0.08230990           1.00000000
    ****
   BE   2
    S   6 1.00
                      1264.58570000           0.00194480
                       189.93681000           0.01483510
                        43.15908900           0.07209060
                        12.09866300           0.23715420
                         3.80632320           0.46919870
                         1.27289030           0.35652020
    S   3 1.00
                         3.19646310          -0.11264870
                         0.74781330          -0.22950640
                         0.21996630           1.18691670
    P   3 1.00
                         3.19646310           0.05598020
                         0.74781330           0.26155060
                         0.21996630           0.79397230
    S   1 1.00
                         0.08230990           1.00000000
    P   1 1.00
                         0.08230990           1.00000000
    ****

  ==> Pre-Iterations <==

   -------------------------------------------------------
    Irrep   Nso     Nmo     Nalpha   Nbeta   Ndocc  Nsocc
   -------------------------------------------------------
     Ag         8       8       0       0       0       0
     B1g        2       2       0       0       0       0
     B2g        2       2       0       0       0       0
     B3g        0       0       0       0       0       0
     Au         0       0       0       0       0       0
     B1u        4       4       0       0       0       0
     B2u        4       4       0       0       0       0
     B3u        7       7       0       0       0       0
   -------------------------------------------------------
    Total      27      27       6       6       6       0
   -------------------------------------------------------

  ==> Integral Setup <==

  Using in-core PK algorithm.
   Calculation information:
      Number of atoms:                   3
      Number of AO shells:              15
      Number of primitives:             42
      Number of atomic orbitals:        27
      Number of basis functions:        27

      Integral cutoff                 1.00e-12
      Number of threads:                 1

  Performing in-core PK
  Using 143262 doubles for integral storage.
  We computed 4266 shell quartets total.
  Whereas there are 7260 unique shell quartets.
  ==> DiskJK: Disk-Based J/K Matrices <==

    J tasked:                  Yes
    K tasked:                  Yes
    wK tasked:                  No
    Memory (MB):             17166
    Schwarz Cutoff:          1E-12

    OpenMP threads:              1
  Minimum eigenvalue in the overlap matrix is 1.2532003918E-01.
  Using Symmetric Orthogonalization.
  SCF Guess: Superposition of Atomic Densities via on-the-fly atomic UHF.

  ==> Iterations <==

                        Total Energy        Delta E     RMS |[F,P]|

   @RHF iter   0:   -43.70030555815283   -4.37003e+01   6.25700e-04 
   @RHF iter   1:   -43.70040888480337   -1.03327e-04   1.19141e-04 
   @RHF iter   2:   -43.70041471023087   -5.82543e-06   2.72919e-05 DIIS
   @RHF iter   3:   -43.70041507097145   -3.60741e-07   1.42331e-06 DIIS
   @RHF iter   4:   -43.70041507180927   -8.37822e-10   1.43390e-07 DIIS
   @RHF iter   5:   -43.70041507181615   -6.87805e-12   6.11709e-09 DIIS
   @RHF iter   6:   -43.70041507181615   -7.10543e-15   7.01226e-10 DIIS

  ==> Post-Iterations <==

    Orbital Energies (a.u.)
    -----------------------

    Doubly Occupied:                                                      

       1Ag    -4.707096     1B3u   -4.706996     2Ag    -4.706996  
       3Ag    -0.302903     2B3u   -0.301341     4Ag    -0.299738  

    Virtual:                                                              

       3B3u    0.069332     1B1u    0.080682     1B2u    0.080682  
       5Ag     0.082323     1B1g    0.082408     1B2g    0.082408  
       2B1u    0.084111     2B2u    0.084111     4B3u    0.095775  
       6Ag     0.421500     5B3u    0.423885     7Ag     0.445980  
       6B3u    0.449955     3B1u    0.460386     3B2u    0.460386  
       2B1g    0.464880     2B2g    0.464880     4B1u    0.469480  
       4B2u    0.469480     8Ag     0.480625     7B3u    0.508453  

    Final Occupation by Irrep:
             Ag   B1g   B2g   B3g    Au   B1u   B2u   B3u 
    DOCC [     4,    0,    0,    0,    0,    0,    0,    2 ]

  Energy converged.

  @RHF Final Energy:   -43.70041507181615

   => Energetics <=

    Nuclear Repulsion Energy =              3.5278480572666684
    One-Electron Energy =                 -64.4063874738814945
    Two-Electron Energy =                  17.1781243447986824
    DFT Exchange-Correlation Energy =       0.0000000000000000
    Empirical Dispersion Energy =           0.0000000000000000
    PCM Polarization Energy =               0.0000000000000000
    EFP Energy =                            0.0000000000000000
    Total Energy =                        -43.7004150718161455


  Saving occupied orbitals to File 180.

*** tstop() called on compute-0-0.local at Tue Aug 15 00:47:33 2017
Module time:
	user time   =       0.25 seconds =       0.00 minutes
	system time =       0.01 seconds =       0.00 minutes
	total time  =          1 seconds =       0.02 minutes
Total time:
	user time   =       0.25 seconds =       0.00 minutes
	system time =       0.01 seconds =       0.00 minutes
	total time  =          1 seconds =       0.02 minutes


Properties will be evaluated at   0.000000,   0.000000,   0.000000 Bohr

Properties computed using the SCF density matrix

  Nuclear Dipole Moment: (a.u.)
     X:     0.0000      Y:     0.0000      Z:     0.0000

  Electronic Dipole Moment: (a.u.)
     X:     0.0000      Y:     0.0000      Z:     0.0000

  Dipole Moment: (a.u.)
     X:     0.0000      Y:     0.0000      Z:     0.0000     Total:     0.0000

  Dipole Moment: (Debye)
     X:     0.0000      Y:     0.0000      Z:     0.0000     Total:     0.0000

 MINTS: Wrapper to libmints.
   by Justin Turney

   Calculation information:
      Number of atoms:                   3
      Number of AO shells:              15
      Number of SO shells:              10
      Number of primitives:             42
      Number of atomic orbitals:        27
      Number of basis functions:        27

      Number of irreps:                  8
      Integral cutoff                 0.00e+00
      Number of functions per irrep: [   8    2    2    0    0    4    4    7 ]

 OEINTS: Overlap, kinetic, potential, dipole, and quadrupole integrals
         stored in file 35.

      Computing two-electron integrals...done
      Computed 11211 non-zero two-electron integrals.
        Stored in file 33.


*** tstart() called on compute-0-0.local
*** at Tue Aug 15 00:47:33 2017


	Wfn Parameters:
	--------------------
	Wavefunction         = CCSD_T
	Number of irreps     = 8
	Number of MOs        = 27
	Number of active MOs = 24
	AO-Basis             = NONE
	Semicanonical        = false
	Reference            = RHF
	Print Level          = 1

	IRREP	# MOs	# FZDC	# DOCC	# SOCC	# VIRT	# FZVR
	-----	-----	------	------	------	------	------
	 Ag	   8	    2	    2	    0	    4	    0
	 B1g	   2	    0	    0	    0	    2	    0
	 B2g	   2	    0	    0	    0	    2	    0
	 B3g	   0	    0	    0	    0	    0	    0
	 Au	   0	    0	    0	    0	    0	    0
	 B1u	   4	    0	    0	    0	    4	    0
	 B2u	   4	    0	    0	    0	    4	    0
	 B3u	   7	    1	    1	    0	    5	    0
	Transforming integrals...
	IWL integrals will be deleted.
	(OO|OO)...
	Presorting SO-basis two-electron integrals.
	Sorting File: SO Ints (nn|nn) nbuckets = 1
	Transforming the one-electron integrals and constructing Fock matrices
	Starting first half-transformation.
	Sorting half-transformed integrals.
	First half integral transformation complete.
	Starting second half-transformation.
	Two-electron integral transformation complete.
	(OO|OV)...
	Starting second half-transformation.
	Two-electron integral transformation complete.
	(OO|VV)...
	Starting second half-transformation.
	Two-electron integral transformation complete.
	(OV|OO)...
	Starting first half-transformation.
	Sorting half-transformed integrals.
	First half integral transformation complete.
	Starting second half-transformation.
	Two-electron integral transformation complete.
	(OV|OV)...
	Starting second half-transformation.
	Two-electron integral transformation complete.
	(OV|VV)...
	Starting second half-transformation.
	Two-electron integral transformation complete.
	(VV|OO)...
	Starting first half-transformation.
	Sorting half-transformed integrals.
	First half integral transformation complete.
	Starting second half-transformation.
	Two-electron integral transformation complete.
	(VV|OV)...
	Starting second half-transformation.
	Two-electron integral transformation complete.
	(VV|VV)...
	Starting second half-transformation.
	Two-electron integral transformation complete.
	Frozen core energy     =    -43.47499259361047

	Size of irrep 0 of <ab|cd> integrals:      0.007 (MW) /      0.052 (MB)
	Size of irrep 1 of <ab|cd> integrals:      0.003 (MW) /      0.025 (MB)
	Size of irrep 2 of <ab|cd> integrals:      0.003 (MW) /      0.025 (MB)
	Size of irrep 3 of <ab|cd> integrals:      0.002 (MW) /      0.013 (MB)
	Size of irrep 4 of <ab|cd> integrals:      0.001 (MW) /      0.008 (MB)
	Size of irrep 5 of <ab|cd> integrals:      0.003 (MW) /      0.022 (MB)
	Size of irrep 6 of <ab|cd> integrals:      0.003 (MW) /      0.022 (MB)
	Size of irrep 7 of <ab|cd> integrals:      0.005 (MW) /      0.041 (MB)
	Total:                                     0.026 (MW) /      0.208 (MB)

	Size of irrep 0 of <ia|bc> integrals:      0.001 (MW) /      0.008 (MB)
	Size of irrep 1 of <ia|bc> integrals:      0.000 (MW) /      0.004 (MB)
	Size of irrep 2 of <ia|bc> integrals:      0.000 (MW) /      0.004 (MB)
	Size of irrep 3 of <ia|bc> integrals:      0.000 (MW) /      0.000 (MB)
	Size of irrep 4 of <ia|bc> integrals:      0.000 (MW) /      0.000 (MB)
	Size of irrep 5 of <ia|bc> integrals:      0.001 (MW) /      0.004 (MB)
	Size of irrep 6 of <ia|bc> integrals:      0.001 (MW) /      0.004 (MB)
	Size of irrep 7 of <ia|bc> integrals:      0.001 (MW) /      0.008 (MB)
	Total:                                     0.004 (MW) /      0.032 (MB)

	Size of irrep 0 of tijab amplitudes:       0.000 (MW) /      0.003 (MB)
	Size of irrep 1 of tijab amplitudes:       0.000 (MW) /      0.000 (MB)
	Size of irrep 2 of tijab amplitudes:       0.000 (MW) /      0.000 (MB)
	Size of irrep 3 of tijab amplitudes:       0.000 (MW) /      0.000 (MB)
	Size of irrep 4 of tijab amplitudes:       0.000 (MW) /      0.000 (MB)
	Size of irrep 5 of tijab amplitudes:       0.000 (MW) /      0.000 (MB)
	Size of irrep 6 of tijab amplitudes:       0.000 (MW) /      0.000 (MB)
	Size of irrep 7 of tijab amplitudes:       0.000 (MW) /      0.002 (MB)
	Total:                                     0.001 (MW) /      0.006 (MB)

	Nuclear Rep. energy          =      3.52784805726667
	SCF energy                   =    -43.70041507181615
	One-electron energy          =     -5.69857855980965
	Two-electron energy          =      1.94530802433737
	Reference energy             =    -43.70041507181608

*** tstop() called on compute-0-0.local at Tue Aug 15 00:47:38 2017
Module time:
	user time   =       0.04 seconds =       0.00 minutes
	system time =       0.03 seconds =       0.00 minutes
	total time  =          5 seconds =       0.08 minutes
Total time:
	user time   =       0.34 seconds =       0.01 minutes
	system time =       0.05 seconds =       0.00 minutes
	total time  =          6 seconds =       0.10 minutes

*** tstart() called on compute-0-0.local
*** at Tue Aug 15 00:47:38 2017

            **************************
            *                        *
            *        CCENERGY        *
            *                        *
            **************************

    Nuclear Rep. energy (wfn)     =    3.527848057266668
    SCF energy          (wfn)     =  -43.700415071816153
    Reference energy    (file100) =  -43.700415071816082

    Input parameters:
    -----------------
    Wave function   =     CCSD_T
    Reference wfn   =     RHF
    Brueckner       =     No
    Memory (Mbytes) =     24000.0
    Maxiter         =     50
    R_Convergence   =     1.0e-07
    E_Convergence   =     1.0e-14
    Restart         =     Yes
    DIIS            =     Yes
    AO Basis        =     NONE
    ABCD            =     NEW
    Cache Level     =     2
    Cache Type      =     LOW
    Print Level     =     1
    Num. of threads =     1
    # Amps to Print =     10
    Print MP2 Amps? =     No
    Analyze T2 Amps =     No
    Print Pair Ener =     No
    Local CC        =     No
    SCS-MP2         =     False
    SCSN-MP2        =     False
    SCS-CCSD        =     False

MP2 correlation energy -0.0699784941342980
                Solving CC Amplitude Equations
                ------------------------------
  Iter             Energy              RMS        T1Diag      D1Diag    New D1Diag    D2Diag
  ----     ---------------------    ---------   ----------  ----------  ----------   --------
     0        -0.069978494134298    0.000e+00    0.000000    0.000000    0.000000    0.162640
     1        -0.103929591253323    1.461e-01    0.004411    0.006331    0.006331    0.245650
     2        -0.138323718537314    7.685e-02    0.011245    0.016270    0.016270    0.334022
     3        -0.137298707232772    5.124e-03    0.011745    0.017059    0.017059    0.332636
     4        -0.138007005083299    1.571e-03    0.011874    0.017253    0.017253    0.334476
     5        -0.137983337798238    1.248e-04    0.011859    0.017236    0.017236    0.334420
     6        -0.137967900534930    4.543e-05    0.011855    0.017230    0.017230    0.334382
     7        -0.137966503481969    5.846e-06    0.011854    0.017228    0.017228    0.334379
     8        -0.137967436497339    3.537e-06    0.011854    0.017228    0.017228    0.334382
     9        -0.137967691249007    1.100e-06    0.011854    0.017228    0.017228    0.334383
    10        -0.137967785339209    3.939e-07    0.011854    0.017228    0.017228    0.334383
    11        -0.137967784495613    1.166e-07    0.011854    0.017228    0.017228    0.334383
    12        -0.137967786482299    5.007e-08    0.011854    0.017228    0.017228    0.334383
    13        -0.137967786853527    2.291e-08    0.011854    0.017228    0.017228    0.334383
    14        -0.137967787158659    1.485e-08    0.011854    0.017228    0.017228    0.334383
    15        -0.137967787096378    7.435e-09    0.011854    0.017228    0.017228    0.334383
    16        -0.137967787043866    3.080e-09    0.011854    0.017228    0.017228    0.334383
    17        -0.137967786942914    1.399e-09    0.011854    0.017228    0.017228    0.334383
    18        -0.137967786906685    4.447e-10    0.011854    0.017228    0.017228    0.334383
    19        -0.137967786889285    1.444e-10    0.011854    0.017228    0.017228    0.334383
    20        -0.137967786883659    5.311e-11    0.011854    0.017228    0.017228    0.334383
    21        -0.137967786881965    2.852e-11    0.011854    0.017228    0.017228    0.334383
    22        -0.137967786880848    1.427e-11    0.011854    0.017228    0.017228    0.334383
    23        -0.137967786880555    6.427e-12    0.011854    0.017228    0.017228    0.334383
    24        -0.137967786880482    3.350e-12    0.011854    0.017228    0.017228    0.334383
    25        -0.137967786880496    1.897e-12    0.011854    0.017228    0.017228    0.334383
    26        -0.137967786880505    1.231e-12    0.011854    0.017228    0.017228    0.334383
    27        -0.137967786880507    6.950e-13    0.011854    0.017228    0.017228    0.334383

    Iterations converged.


    Largest TIA Amplitudes:
              0   1        -0.0159259540
              1   2        -0.0138563702
              2  18        -0.0120496915
              2  19        -0.0107733537
              1   3        -0.0077073907
              0   2        -0.0050500805
              2  20        -0.0037566485
              0   3         0.0036309189
              1   1         0.0025138648
              2  16         0.0021363396

    Largest TIjAb Amplitudes:
      2   2   4   4        -0.0861728158
      2   2   6   6        -0.0861728158
      2   2   0   0        -0.0855280885
      1   1  17  17        -0.0668244136
      0   1  16  17         0.0665955486
      1   0  17  16         0.0665955486
      0   0  16  16        -0.0664165683
      1   1   9   9        -0.0658433849
      1   1  13  13        -0.0658433849
      0   1   8   9        -0.0656960237

    SCF energy       (wfn)                    =  -43.700415071816153
    Reference energy (file100)                =  -43.700415071816082

    Opposite-spin MP2 correlation energy      =   -0.069881270872127
    Same-spin MP2 correlation energy          =   -0.000097223262170
    MP2 correlation energy                    =   -0.069978494134298
      * MP2 total energy                      =  -43.770393565950378

    Opposite-spin CCSD correlation energy     =   -0.137867366847002
    Same-spin CCSD correlation energy         =   -0.000100420077711
    CCSD correlation energy                   =   -0.137967786880507
      * CCSD total energy                     =  -43.838382858696590


*** tstop() called on compute-0-0.local at Tue Aug 15 00:48:39 2017
Module time:
	user time   =       0.39 seconds =       0.01 minutes
	system time =       0.43 seconds =       0.01 minutes
	total time  =         61 seconds =       1.02 minutes
Total time:
	user time   =       0.73 seconds =       0.01 minutes
	system time =       0.48 seconds =       0.01 minutes
	total time  =         67 seconds =       1.12 minutes

*** tstart() called on compute-0-0.local
*** at Tue Aug 15 00:48:39 2017

            **************************
            *                        *
            *        CCTRIPLES       *
            *                        *
            **************************


    Wave function   =    CCSD_T
    Reference wfn   =      RHF

    Nuclear Rep. energy (wfn)                =    3.527848057266668
    SCF energy          (wfn)                =  -43.700415071816153
    Reference energy    (file100)            =  -43.700415071816082
    CCSD energy         (file100)            =   -0.137967786880507
    Total CCSD energy   (file100)            =  -43.838382858696590

    Number of ijk index combinations:               10
    Memory available in words        :      3000000000
    ~Words needed per explicit thread:             500
    Number of threads for explicit ijk threading:    1

    (T) energy                                =   -0.000010921310046
      * CCSD(T) total energy                  =  -43.838393780006633


*** tstop() called on compute-0-0.local at Tue Aug 15 00:48:39 2017
Module time:
	user time   =       0.02 seconds =       0.00 minutes
	system time =       0.02 seconds =       0.00 minutes
	total time  =          0 seconds =       0.00 minutes
Total time:
	user time   =       0.75 seconds =       0.01 minutes
	system time =       0.50 seconds =       0.01 minutes
	total time  =         67 seconds =       1.12 minutes

*** Psi4 exiting successfully. Buy a developer a beer!
