    -----------------------------------------------------------------------
          Psi4: An Open-Source Ab Initio Electronic Structure Package
                              Psi4 1.0.0 Driver

                          Git: Rev {master} 6a9a71b dirty

    J. M. Turney, A. C. Simmonett, R. M. Parrish, E. G. Hohenstein,
    F. A. Evangelista, J. T. Fermann, B. J. Mintz, L. A. Burns, J. J. Wilke,
    M. L. Abrams, N. J. Russ, M. L. Leininger, C. L. Janssen, E. T. Seidl,
    W. D. Allen, H. F. Schaefer, R. A. King, E. F. Valeev, C. D. Sherrill,
    and T. D. Crawford, WIREs Comput. Mol. Sci. 2, 556-565 (2012)
    (doi: 10.1002/wcms.93)

                         Additional Contributions by
    A. E. DePrince, U. Bozkaya, A. Yu. Sokolov, D. G. A. Smith, R. Di Remigio,
    R. M. Richard, J. F. Gonthier, H. R. McAlexander, M. Saitow, and
    B. P. Pritchard
    -----------------------------------------------------------------------


    Psi4 started on: Tue Aug 15 00:39:48 2017

    Process ID:   9111
    PSI4DATADIR: /home/yhliu/psi4conda/share/psi4
    Memory level set to 256.000 MB

  ==> Input File <==

--------------------------------------------------------------------------
memory 24 Gb
molecule be3 {
0 1
Be  -4.0    0.0 0.0
Be   0.0    0.0 0.0
Be   4.0    0.0 0.0
units angstrom    
}

set basis 6-31g
set freeze_core true
set PRINT_BASIS True
set PUREAM False
set E_CONVERGENCE 1e-14
energy('ccsd(t)')
--------------------------------------------------------------------------
/home/yhliu/psi4conda/lib/python2.7/site-packages/v2rdm_casscf/v2rdm_casscf.so loaded.

  Memory set to  24.000 GiB by Python script.

*** tstart() called on compute-0-0.local
*** at Tue Aug 15 00:39:49 2017


         ---------------------------------------------------------
                                   SCF
            by Justin Turney, Rob Parrish, and Andy Simmonett
                              RHF Reference
                        1 Threads,  24000 MiB Core
         ---------------------------------------------------------

  ==> Geometry <==

    Molecular point group: d2h
    Full point group: D_inf_h

    Geometry (in Angstrom), charge = 0, multiplicity = 1:

       Center              X                  Y                   Z               Mass       
    ------------   -----------------  -----------------  -----------------  -----------------
          BE         -4.000000000000    -0.000000000000     0.000000000000     9.012182201000
          BE          0.000000000000     0.000000000000     0.000000000000     9.012182201000
          BE          4.000000000000     0.000000000000     0.000000000000     9.012182201000

  Running in d2h symmetry.

  Rotational constants: A = ************  B =      0.05845  C =      0.05845 [cm^-1]
  Rotational constants: A = ************  B =   1752.41618  C =   1752.41618 [MHz]
  Nuclear repulsion =    5.291772085900000

  Charge       = 0
  Multiplicity = 1
  Electrons    = 12
  Nalpha       = 6
  Nbeta        = 6

  ==> Algorithm <==

  SCF Algorithm Type is PK.
  DIIS enabled.
  MOM disabled.
  Fractional occupation disabled.
  Guess Type is SAD.
  Energy threshold   = 1.00e-14
  Density threshold  = 1.00e-08
  Integral threshold = 0.00e+00

  ==> Primary Basis <==

  Basis Set: 6-31G
    Number of shells: 15
    Number of basis function: 27
    Number of Cartesian functions: 27
    Spherical Harmonics?: false
    Max angular momentum: 1

  -AO BASIS SET INFORMATION:
    Name                   = 6-31G
    Total number of shells = 15
    Number of primitives   = 42
    Number of AO           = 27
    Number of SO           = 27
    Maximum AM             = 1
    Spherical Harmonics    = FALSE

  -Contraction Scheme:
    Atom   Type   All Primitives // Shells:
   ------ ------ --------------------------
       1    BE     10s 4p // 3s 2p 
       2    BE     10s 4p // 3s 2p 
       3    BE     10s 4p // 3s 2p 

  ==> AO Basis Functions <==

    [ 6-31G ]
    cartesian
    ****
   BE   1
    S   6 1.00
                      1264.58570000           0.00194480
                       189.93681000           0.01483510
                        43.15908900           0.07209060
                        12.09866300           0.23715420
                         3.80632320           0.46919870
                         1.27289030           0.35652020
    S   3 1.00
                         3.19646310          -0.11264870
                         0.74781330          -0.22950640
                         0.21996630           1.18691670
    P   3 1.00
                         3.19646310           0.05598020
                         0.74781330           0.26155060
                         0.21996630           0.79397230
    S   1 1.00
                         0.08230990           1.00000000
    P   1 1.00
                         0.08230990           1.00000000
    ****
   BE   2
    S   6 1.00
                      1264.58570000           0.00194480
                       189.93681000           0.01483510
                        43.15908900           0.07209060
                        12.09866300           0.23715420
                         3.80632320           0.46919870
                         1.27289030           0.35652020
    S   3 1.00
                         3.19646310          -0.11264870
                         0.74781330          -0.22950640
                         0.21996630           1.18691670
    P   3 1.00
                         3.19646310           0.05598020
                         0.74781330           0.26155060
                         0.21996630           0.79397230
    S   1 1.00
                         0.08230990           1.00000000
    P   1 1.00
                         0.08230990           1.00000000
    ****

  ==> Pre-Iterations <==

   -------------------------------------------------------
    Irrep   Nso     Nmo     Nalpha   Nbeta   Ndocc  Nsocc
   -------------------------------------------------------
     Ag         8       8       0       0       0       0
     B1g        2       2       0       0       0       0
     B2g        2       2       0       0       0       0
     B3g        0       0       0       0       0       0
     Au         0       0       0       0       0       0
     B1u        4       4       0       0       0       0
     B2u        4       4       0       0       0       0
     B3u        7       7       0       0       0       0
   -------------------------------------------------------
    Total      27      27       6       6       6       0
   -------------------------------------------------------

  ==> Integral Setup <==

  Using in-core PK algorithm.
   Calculation information:
      Number of atoms:                   3
      Number of AO shells:              15
      Number of primitives:             42
      Number of atomic orbitals:        27
      Number of basis functions:        27

      Integral cutoff                 1.00e-12
      Number of threads:                 1

  Performing in-core PK
  Using 143262 doubles for integral storage.
  We computed 6181 shell quartets total.
  Whereas there are 7260 unique shell quartets.
  ==> DiskJK: Disk-Based J/K Matrices <==

    J tasked:                  Yes
    K tasked:                  Yes
    wK tasked:                  No
    Memory (MB):             17166
    Schwarz Cutoff:          1E-12

    OpenMP threads:              1
  Minimum eigenvalue in the overlap matrix is 8.5310230968E-02.
  Using Symmetric Orthogonalization.
  SCF Guess: Superposition of Atomic Densities via on-the-fly atomic UHF.

  ==> Iterations <==

                        Total Energy        Delta E     RMS |[F,P]|

   @RHF iter   0:   -43.70749418708461   -4.37075e+01   3.15642e-03 
   @RHF iter   1:   -43.70010711086953    7.38708e-03   5.65722e-04 
   @RHF iter   2:   -43.70026400711622   -1.56896e-04   2.02981e-04 DIIS
   @RHF iter   3:   -43.70028894928864   -2.49422e-05   1.47875e-05 DIIS
   @RHF iter   4:   -43.70028904412161   -9.48330e-08   1.54852e-06 DIIS
   @RHF iter   5:   -43.70028904477268   -6.51070e-10   1.64626e-07 DIIS
   @RHF iter   6:   -43.70028904478076   -8.07887e-12   1.03345e-08 DIIS
   @RHF iter   7:   -43.70028904478078   -2.13163e-14   1.39260e-09 DIIS
   @RHF iter   8:   -43.70028904478080   -2.13163e-14   1.72403e-10 DIIS
   @RHF iter   9:   -43.70028904478083   -2.84217e-14   1.22109e-11 DIIS
   @RHF iter  10:   -43.70028904478080    3.55271e-14   4.51783e-13 DIIS
   @RHF iter  11:   -43.70028904478082   -2.13163e-14   6.76001e-14 DIIS
   @RHF iter  12:   -43.70028904478082    0.00000e+00   1.53303e-14 DIIS

  ==> Post-Iterations <==

    Orbital Energies (a.u.)
    -----------------------

    Doubly Occupied:                                                      

       1Ag    -4.708668     1B3u   -4.707422     2Ag    -4.707421  
       3Ag    -0.323016     2B3u   -0.302863     4Ag    -0.278892  

    Virtual:                                                              

       3B3u    0.044748     1B1u    0.066008     1B2u    0.066008  
       1B1g    0.082203     1B2g    0.082203     5Ag     0.093922  
       2B1u    0.100440     2B2u    0.100440     4B3u    0.161190  
       6Ag     0.421754     5B3u    0.438453     3B1u    0.447475  
       3B2u    0.447475     2B1g    0.464456     2B2g    0.464456  
       7Ag     0.465358     4B1u    0.492893     4B2u    0.492893  
       6B3u    0.496857     8Ag     0.558818     7B3u    0.622602  

    Final Occupation by Irrep:
             Ag   B1g   B2g   B3g    Au   B1u   B2u   B3u 
    DOCC [     4,    0,    0,    0,    0,    0,    0,    2 ]

  Energy converged.

  @RHF Final Energy:   -43.70028904478082

   => Energetics <=

    Nuclear Repulsion Energy =              5.2917720858999999
    One-Electron Energy =                 -67.9275592194833280
    Two-Electron Energy =                  18.9354980888025111
    DFT Exchange-Correlation Energy =       0.0000000000000000
    Empirical Dispersion Energy =           0.0000000000000000
    PCM Polarization Energy =               0.0000000000000000
    EFP Energy =                            0.0000000000000000
    Total Energy =                        -43.7002890447808170


  Saving occupied orbitals to File 180.

*** tstop() called on compute-0-0.local at Tue Aug 15 00:39:51 2017
Module time:
	user time   =       0.21 seconds =       0.00 minutes
	system time =       0.01 seconds =       0.00 minutes
	total time  =          2 seconds =       0.03 minutes
Total time:
	user time   =       0.21 seconds =       0.00 minutes
	system time =       0.01 seconds =       0.00 minutes
	total time  =          2 seconds =       0.03 minutes


Properties will be evaluated at   0.000000,   0.000000,   0.000000 Bohr

Properties computed using the SCF density matrix

  Nuclear Dipole Moment: (a.u.)
     X:     0.0000      Y:     0.0000      Z:     0.0000

  Electronic Dipole Moment: (a.u.)
     X:     0.0000      Y:     0.0000      Z:     0.0000

  Dipole Moment: (a.u.)
     X:     0.0000      Y:     0.0000      Z:     0.0000     Total:     0.0000

  Dipole Moment: (Debye)
     X:     0.0000      Y:     0.0000      Z:     0.0000     Total:     0.0000

 MINTS: Wrapper to libmints.
   by Justin Turney

   Calculation information:
      Number of atoms:                   3
      Number of AO shells:              15
      Number of SO shells:              10
      Number of primitives:             42
      Number of atomic orbitals:        27
      Number of basis functions:        27

      Number of irreps:                  8
      Integral cutoff                 0.00e+00
      Number of functions per irrep: [   8    2    2    0    0    4    4    7 ]

 OEINTS: Overlap, kinetic, potential, dipole, and quadrupole integrals
         stored in file 35.

      Computing two-electron integrals...done
      Computed 11211 non-zero two-electron integrals.
        Stored in file 33.


*** tstart() called on compute-0-0.local
*** at Tue Aug 15 00:39:51 2017


	Wfn Parameters:
	--------------------
	Wavefunction         = CCSD_T
	Number of irreps     = 8
	Number of MOs        = 27
	Number of active MOs = 24
	AO-Basis             = NONE
	Semicanonical        = false
	Reference            = RHF
	Print Level          = 1

	IRREP	# MOs	# FZDC	# DOCC	# SOCC	# VIRT	# FZVR
	-----	-----	------	------	------	------	------
	 Ag	   8	    2	    2	    0	    4	    0
	 B1g	   2	    0	    0	    0	    2	    0
	 B2g	   2	    0	    0	    0	    2	    0
	 B3g	   0	    0	    0	    0	    0	    0
	 Au	   0	    0	    0	    0	    0	    0
	 B1u	   4	    0	    0	    0	    4	    0
	 B2u	   4	    0	    0	    0	    4	    0
	 B3u	   7	    1	    1	    0	    5	    0
	Transforming integrals...
	IWL integrals will be deleted.
	(OO|OO)...
	Presorting SO-basis two-electron integrals.
	Sorting File: SO Ints (nn|nn) nbuckets = 1
	Transforming the one-electron integrals and constructing Fock matrices
	Starting first half-transformation.
	Sorting half-transformed integrals.
	First half integral transformation complete.
	Starting second half-transformation.
	Two-electron integral transformation complete.
	(OO|OV)...
	Starting second half-transformation.
	Two-electron integral transformation complete.
	(OO|VV)...
	Starting second half-transformation.
	Two-electron integral transformation complete.
	(OV|OO)...
	Starting first half-transformation.
	Sorting half-transformed integrals.
	First half integral transformation complete.
	Starting second half-transformation.
	Two-electron integral transformation complete.
	(OV|OV)...
	Starting second half-transformation.
	Two-electron integral transformation complete.
	(OV|VV)...
	Starting second half-transformation.
	Two-electron integral transformation complete.
	(VV|OO)...
	Starting first half-transformation.
	Sorting half-transformed integrals.
	First half integral transformation complete.
	Starting second half-transformation.
	Two-electron integral transformation complete.
	(VV|OV)...
	Starting second half-transformation.
	Two-electron integral transformation complete.
	(VV|VV)...
	Starting second half-transformation.
	Two-electron integral transformation complete.
	Frozen core energy     =    -44.79794806056331

	Size of irrep 0 of <ab|cd> integrals:      0.007 (MW) /      0.052 (MB)
	Size of irrep 1 of <ab|cd> integrals:      0.003 (MW) /      0.025 (MB)
	Size of irrep 2 of <ab|cd> integrals:      0.003 (MW) /      0.025 (MB)
	Size of irrep 3 of <ab|cd> integrals:      0.002 (MW) /      0.013 (MB)
	Size of irrep 4 of <ab|cd> integrals:      0.001 (MW) /      0.008 (MB)
	Size of irrep 5 of <ab|cd> integrals:      0.003 (MW) /      0.022 (MB)
	Size of irrep 6 of <ab|cd> integrals:      0.003 (MW) /      0.022 (MB)
	Size of irrep 7 of <ab|cd> integrals:      0.005 (MW) /      0.041 (MB)
	Total:                                     0.026 (MW) /      0.208 (MB)

	Size of irrep 0 of <ia|bc> integrals:      0.001 (MW) /      0.008 (MB)
	Size of irrep 1 of <ia|bc> integrals:      0.000 (MW) /      0.004 (MB)
	Size of irrep 2 of <ia|bc> integrals:      0.000 (MW) /      0.004 (MB)
	Size of irrep 3 of <ia|bc> integrals:      0.000 (MW) /      0.000 (MB)
	Size of irrep 4 of <ia|bc> integrals:      0.000 (MW) /      0.000 (MB)
	Size of irrep 5 of <ia|bc> integrals:      0.001 (MW) /      0.004 (MB)
	Size of irrep 6 of <ia|bc> integrals:      0.001 (MW) /      0.004 (MB)
	Size of irrep 7 of <ia|bc> integrals:      0.001 (MW) /      0.008 (MB)
	Total:                                     0.004 (MW) /      0.032 (MB)

	Size of irrep 0 of tijab amplitudes:       0.000 (MW) /      0.003 (MB)
	Size of irrep 1 of tijab amplitudes:       0.000 (MW) /      0.000 (MB)
	Size of irrep 2 of tijab amplitudes:       0.000 (MW) /      0.000 (MB)
	Size of irrep 3 of tijab amplitudes:       0.000 (MW) /      0.000 (MB)
	Size of irrep 4 of tijab amplitudes:       0.000 (MW) /      0.000 (MB)
	Size of irrep 5 of tijab amplitudes:       0.000 (MW) /      0.000 (MB)
	Size of irrep 6 of tijab amplitudes:       0.000 (MW) /      0.000 (MB)
	Size of irrep 7 of tijab amplitudes:       0.000 (MW) /      0.002 (MB)
	Total:                                     0.001 (MW) /      0.006 (MB)

	Nuclear Rep. energy          =      5.29177208590000
	SCF energy                   =    -43.70028904478082
	One-electron energy          =     -6.57868579725502
	Two-electron energy          =      2.38457272713742
	Reference energy             =    -43.70028904478092

*** tstop() called on compute-0-0.local at Tue Aug 15 00:39:51 2017
Module time:
	user time   =       0.04 seconds =       0.00 minutes
	system time =       0.04 seconds =       0.00 minutes
	total time  =          0 seconds =       0.00 minutes
Total time:
	user time   =       0.31 seconds =       0.01 minutes
	system time =       0.05 seconds =       0.00 minutes
	total time  =          2 seconds =       0.03 minutes

*** tstart() called on compute-0-0.local
*** at Tue Aug 15 00:39:51 2017

            **************************
            *                        *
            *        CCENERGY        *
            *                        *
            **************************

    Nuclear Rep. energy (wfn)     =    5.291772085900000
    SCF energy          (wfn)     =  -43.700289044780817
    Reference energy    (file100) =  -43.700289044780924

    Input parameters:
    -----------------
    Wave function   =     CCSD_T
    Reference wfn   =     RHF
    Brueckner       =     No
    Memory (Mbytes) =     24000.0
    Maxiter         =     50
    R_Convergence   =     1.0e-07
    E_Convergence   =     1.0e-14
    Restart         =     Yes
    DIIS            =     Yes
    AO Basis        =     NONE
    ABCD            =     NEW
    Cache Level     =     2
    Cache Type      =     LOW
    Print Level     =     1
    Num. of threads =     1
    # Amps to Print =     10
    Print MP2 Amps? =     No
    Analyze T2 Amps =     No
    Print Pair Ener =     No
    Local CC        =     No
    SCS-MP2         =     False
    SCSN-MP2        =     False
    SCS-CCSD        =     False

MP2 correlation energy -0.0713780520690085
                Solving CC Amplitude Equations
                ------------------------------
  Iter             Energy              RMS        T1Diag      D1Diag    New D1Diag    D2Diag
  ----     ---------------------    ---------   ----------  ----------  ----------   --------
     0        -0.071378052069009    0.000e+00    0.000000    0.000000    0.000000    0.168692
     1        -0.104936074990267    1.436e-01    0.004500    0.006749    0.006749    0.253074
     2        -0.137454963988027    7.507e-02    0.012315    0.018650    0.018650    0.340683
     3        -0.136931674193648    7.306e-03    0.013706    0.020937    0.020937    0.341112
     4        -0.137559661587646    2.242e-03    0.014047    0.021507    0.021507    0.342927
     5        -0.137770144561406    5.594e-04    0.014173    0.021721    0.021721    0.343499
     6        -0.137675093195421    2.964e-04    0.014149    0.021681    0.021681    0.343241
     7        -0.137639739165653    8.329e-05    0.014138    0.021662    0.021662    0.343148
     8        -0.137656388184715    5.566e-05    0.014141    0.021664    0.021664    0.343198
     9        -0.137657784205621    1.940e-05    0.014138    0.021658    0.021658    0.343205
    10        -0.137658307284356    9.650e-06    0.014137    0.021657    0.021657    0.343208
    11        -0.137658070418701    4.388e-06    0.014137    0.021656    0.021656    0.343208
    12        -0.137658080863950    1.435e-06    0.014136    0.021656    0.021656    0.343208
    13        -0.137658106919366    6.872e-07    0.014137    0.021656    0.021656    0.343208
    14        -0.137658110967555    2.327e-07    0.014136    0.021656    0.021656    0.343208
    15        -0.137658104396999    8.129e-08    0.014136    0.021656    0.021656    0.343208
    16        -0.137658103857543    3.171e-08    0.014136    0.021656    0.021656    0.343208
    17        -0.137658104222766    1.935e-08    0.014136    0.021656    0.021656    0.343208
    18        -0.137658104316151    1.333e-08    0.014136    0.021656    0.021656    0.343208
    19        -0.137658104755596    4.739e-09    0.014136    0.021656    0.021656    0.343208
    20        -0.137658104777375    1.699e-09    0.014136    0.021656    0.021656    0.343208
    21        -0.137658104771429    7.946e-10    0.014136    0.021656    0.021656    0.343208
    22        -0.137658104751116    4.097e-10    0.014136    0.021656    0.021656    0.343208
    23        -0.137658104729916    2.277e-10    0.014136    0.021656    0.021656    0.343208
    24        -0.137658104728480    8.242e-11    0.014136    0.021656    0.021656    0.343208
    25        -0.137658104732116    3.524e-11    0.014136    0.021656    0.021656    0.343208
    26        -0.137658104734430    1.674e-11    0.014136    0.021656    0.021656    0.343208
    27        -0.137658104734920    8.420e-12    0.014136    0.021656    0.021656    0.343208
    28        -0.137658104735335    4.717e-12    0.014136    0.021656    0.021656    0.343208
    29        -0.137658104735188    2.121e-12    0.014136    0.021656    0.021656    0.343208
    30        -0.137658104735096    9.746e-13    0.014136    0.021656    0.021656    0.343208
    31        -0.137658104735049    4.945e-13    0.014136    0.021656    0.021656    0.343208
    32        -0.137658104735040    2.858e-13    0.014136    0.021656    0.021656    0.343208
    33        -0.137658104735048    1.780e-13    0.014136    0.021656    0.021656    0.343208

    Iterations converged.


    Largest TIA Amplitudes:
              0   1         0.0162931500
              1   0         0.0145096089
              2  18         0.0137176197
              2  17         0.0120628313
              2  16         0.0105147622
              1   3        -0.0093941224
              1   2        -0.0089054716
              0   0        -0.0086572594
              2  20        -0.0043405491
              1   1         0.0030066717

    Largest TIjAb Amplitudes:
      2   2   4   4        -0.0850044922
      2   2   6   6        -0.0850044922
      2   2   0   0        -0.0819138608
      1   1  16  16        -0.0792328024
      0   0  16  16        -0.0758754925
      1   1   9   9        -0.0704508334
      1   1  13  13        -0.0704508334
      0   1  16  17         0.0702696687
      1   0  17  16         0.0702696687
      0   1   8   9        -0.0679089703

    SCF energy       (wfn)                    =  -43.700289044780817
    Reference energy (file100)                =  -43.700289044780924

    Opposite-spin MP2 correlation energy      =   -0.070250184866427
    Same-spin MP2 correlation energy          =   -0.001127867202582
    MP2 correlation energy                    =   -0.071378052069009
      * MP2 total energy                      =  -43.771667096849932

    Opposite-spin CCSD correlation energy     =   -0.136399270521149
    Same-spin CCSD correlation energy         =   -0.001258834213899
    CCSD correlation energy                   =   -0.137658104735048
      * CCSD total energy                     =  -43.837947149515969


*** tstop() called on compute-0-0.local at Tue Aug 15 00:39:57 2017
Module time:
	user time   =       0.48 seconds =       0.01 minutes
	system time =       0.55 seconds =       0.01 minutes
	total time  =          6 seconds =       0.10 minutes
Total time:
	user time   =       0.79 seconds =       0.01 minutes
	system time =       0.60 seconds =       0.01 minutes
	total time  =          8 seconds =       0.13 minutes

*** tstart() called on compute-0-0.local
*** at Tue Aug 15 00:39:57 2017

            **************************
            *                        *
            *        CCTRIPLES       *
            *                        *
            **************************


    Wave function   =    CCSD_T
    Reference wfn   =      RHF

    Nuclear Rep. energy (wfn)                =    5.291772085900000
    SCF energy          (wfn)                =  -43.700289044780817
    Reference energy    (file100)            =  -43.700289044780924
    CCSD energy         (file100)            =   -0.137658104735048
    Total CCSD energy   (file100)            =  -43.837947149515969

    Number of ijk index combinations:               10
    Memory available in words        :      3000000000
    ~Words needed per explicit thread:             500
    Number of threads for explicit ijk threading:    1

    (T) energy                                =   -0.000302795048518
      * CCSD(T) total energy                  =  -43.838249944564488


*** tstop() called on compute-0-0.local at Tue Aug 15 00:39:57 2017
Module time:
	user time   =       0.01 seconds =       0.00 minutes
	system time =       0.02 seconds =       0.00 minutes
	total time  =          0 seconds =       0.00 minutes
Total time:
	user time   =       0.80 seconds =       0.01 minutes
	system time =       0.62 seconds =       0.01 minutes
	total time  =          8 seconds =       0.13 minutes

*** Psi4 exiting successfully. Buy a developer a beer!
