    -----------------------------------------------------------------------
          Psi4: An Open-Source Ab Initio Electronic Structure Package
                              Psi4 1.0.0 Driver

                          Git: Rev {master} 6a9a71b dirty

    J. M. Turney, A. C. Simmonett, R. M. Parrish, E. G. Hohenstein,
    F. A. Evangelista, J. T. Fermann, B. J. Mintz, L. A. Burns, J. J. Wilke,
    M. L. Abrams, N. J. Russ, M. L. Leininger, C. L. Janssen, E. T. Seidl,
    W. D. Allen, H. F. Schaefer, R. A. King, E. F. Valeev, C. D. Sherrill,
    and T. D. Crawford, WIREs Comput. Mol. Sci. 2, 556-565 (2012)
    (doi: 10.1002/wcms.93)

                         Additional Contributions by
    A. E. DePrince, U. Bozkaya, A. Yu. Sokolov, D. G. A. Smith, R. Di Remigio,
    R. M. Richard, J. F. Gonthier, H. R. McAlexander, M. Saitow, and
    B. P. Pritchard
    -----------------------------------------------------------------------


    Psi4 started on: Tue Aug 15 00:37:32 2017

    Process ID:   8890
    PSI4DATADIR: /home/yhliu/psi4conda/share/psi4
    Memory level set to 256.000 MB

  ==> Input File <==

--------------------------------------------------------------------------
memory 24 Gb
molecule be3 {
0 1
Be  -3.8    0.0 0.0
Be   0.0    0.0 0.0
Be   3.8    0.0 0.0
units angstrom    
}

set basis 6-31g
set freeze_core true
set PRINT_BASIS True
set PUREAM False
set E_CONVERGENCE 1e-14
energy('ccsd(t)')
--------------------------------------------------------------------------
/home/yhliu/psi4conda/lib/python2.7/site-packages/v2rdm_casscf/v2rdm_casscf.so loaded.

  Memory set to  24.000 GiB by Python script.

*** tstart() called on compute-0-0.local
*** at Tue Aug 15 00:37:32 2017


         ---------------------------------------------------------
                                   SCF
            by Justin Turney, Rob Parrish, and Andy Simmonett
                              RHF Reference
                        1 Threads,  24000 MiB Core
         ---------------------------------------------------------

  ==> Geometry <==

    Molecular point group: d2h
    Full point group: D_inf_h

    Geometry (in Angstrom), charge = 0, multiplicity = 1:

       Center              X                  Y                   Z               Mass       
    ------------   -----------------  -----------------  -----------------  -----------------
          BE         -3.800000000000    -0.000000000000     0.000000000000     9.012182201000
          BE          0.000000000000     0.000000000000     0.000000000000     9.012182201000
          BE          3.800000000000     0.000000000000     0.000000000000     9.012182201000

  Running in d2h symmetry.

  Rotational constants: A = ************  B =      0.06477  C =      0.06477 [cm^-1]
  Rotational constants: A = ************  B =   1941.73538  C =   1941.73538 [MHz]
  Nuclear repulsion =    5.570286406210530

  Charge       = 0
  Multiplicity = 1
  Electrons    = 12
  Nalpha       = 6
  Nbeta        = 6

  ==> Algorithm <==

  SCF Algorithm Type is PK.
  DIIS enabled.
  MOM disabled.
  Fractional occupation disabled.
  Guess Type is SAD.
  Energy threshold   = 1.00e-14
  Density threshold  = 1.00e-08
  Integral threshold = 0.00e+00

  ==> Primary Basis <==

  Basis Set: 6-31G
    Number of shells: 15
    Number of basis function: 27
    Number of Cartesian functions: 27
    Spherical Harmonics?: false
    Max angular momentum: 1

  -AO BASIS SET INFORMATION:
    Name                   = 6-31G
    Total number of shells = 15
    Number of primitives   = 42
    Number of AO           = 27
    Number of SO           = 27
    Maximum AM             = 1
    Spherical Harmonics    = FALSE

  -Contraction Scheme:
    Atom   Type   All Primitives // Shells:
   ------ ------ --------------------------
       1    BE     10s 4p // 3s 2p 
       2    BE     10s 4p // 3s 2p 
       3    BE     10s 4p // 3s 2p 

  ==> AO Basis Functions <==

    [ 6-31G ]
    cartesian
    ****
   BE   1
    S   6 1.00
                      1264.58570000           0.00194480
                       189.93681000           0.01483510
                        43.15908900           0.07209060
                        12.09866300           0.23715420
                         3.80632320           0.46919870
                         1.27289030           0.35652020
    S   3 1.00
                         3.19646310          -0.11264870
                         0.74781330          -0.22950640
                         0.21996630           1.18691670
    P   3 1.00
                         3.19646310           0.05598020
                         0.74781330           0.26155060
                         0.21996630           0.79397230
    S   1 1.00
                         0.08230990           1.00000000
    P   1 1.00
                         0.08230990           1.00000000
    ****
   BE   2
    S   6 1.00
                      1264.58570000           0.00194480
                       189.93681000           0.01483510
                        43.15908900           0.07209060
                        12.09866300           0.23715420
                         3.80632320           0.46919870
                         1.27289030           0.35652020
    S   3 1.00
                         3.19646310          -0.11264870
                         0.74781330          -0.22950640
                         0.21996630           1.18691670
    P   3 1.00
                         3.19646310           0.05598020
                         0.74781330           0.26155060
                         0.21996630           0.79397230
    S   1 1.00
                         0.08230990           1.00000000
    P   1 1.00
                         0.08230990           1.00000000
    ****

  ==> Pre-Iterations <==

   -------------------------------------------------------
    Irrep   Nso     Nmo     Nalpha   Nbeta   Ndocc  Nsocc
   -------------------------------------------------------
     Ag         8       8       0       0       0       0
     B1g        2       2       0       0       0       0
     B2g        2       2       0       0       0       0
     B3g        0       0       0       0       0       0
     Au         0       0       0       0       0       0
     B1u        4       4       0       0       0       0
     B2u        4       4       0       0       0       0
     B3u        7       7       0       0       0       0
   -------------------------------------------------------
    Total      27      27       6       6       6       0
   -------------------------------------------------------

  ==> Integral Setup <==

  Using in-core PK algorithm.
   Calculation information:
      Number of atoms:                   3
      Number of AO shells:              15
      Number of primitives:             42
      Number of atomic orbitals:        27
      Number of basis functions:        27

      Integral cutoff                 1.00e-12
      Number of threads:                 1

  Performing in-core PK
  Using 143262 doubles for integral storage.
  We computed 6296 shell quartets total.
  Whereas there are 7260 unique shell quartets.
  ==> DiskJK: Disk-Based J/K Matrices <==

    J tasked:                  Yes
    K tasked:                  Yes
    wK tasked:                  No
    Memory (MB):             17166
    Schwarz Cutoff:          1E-12

    OpenMP threads:              1
  Minimum eigenvalue in the overlap matrix is 7.4269049622E-02.
  Using Symmetric Orthogonalization.
  SCF Guess: Superposition of Atomic Densities via on-the-fly atomic UHF.

  ==> Iterations <==

                        Total Energy        Delta E     RMS |[F,P]|

   @RHF iter   0:   -43.71237805100444   -4.37124e+01   4.15271e-03 
   @RHF iter   1:   -43.69948634217481    1.28917e-02   6.50421e-04 
   @RHF iter   2:   -43.69969344587982   -2.07104e-04   2.41892e-04 DIIS
   @RHF iter   3:   -43.69972965302385   -3.62071e-05   2.06834e-05 DIIS
   @RHF iter   4:   -43.69972985695811   -2.03934e-07   2.24745e-06 DIIS
   @RHF iter   5:   -43.69972985829433   -1.33622e-09   2.40661e-07 DIIS
   @RHF iter   6:   -43.69972985831153   -1.71951e-11   1.55697e-08 DIIS
   @RHF iter   7:   -43.69972985831158   -5.68434e-14   1.92105e-09 DIIS
   @RHF iter   8:   -43.69972985831161   -2.84217e-14   2.06068e-10 DIIS
   @RHF iter   9:   -43.69972985831161    0.00000e+00   1.81442e-11 DIIS

  ==> Post-Iterations <==

    Orbital Energies (a.u.)
    -----------------------

    Doubly Occupied:                                                      

       1Ag    -4.708953     1B3u   -4.707360     2Ag    -4.707359  
       3Ag    -0.328502     2B3u   -0.303694     4Ag    -0.273142  

    Virtual:                                                              

       3B3u    0.042292     1B1u    0.063103     1B2u    0.063103  
       1B2g    0.082106     1B1g    0.082106     5Ag     0.098605  
       2B1u    0.104271     2B2u    0.104271     4B3u    0.174803  
       6Ag     0.428109     5B3u    0.440608     3B2u    0.448690  
       3B1u    0.448690     2B2g    0.464447     2B1g    0.464447  
       7Ag     0.473585     4B2u    0.494942     4B1u    0.494942  
       6B3u    0.512199     8Ag     0.561161     7B3u    0.625267  

    Final Occupation by Irrep:
             Ag   B1g   B2g   B3g    Au   B1u   B2u   B3u 
    DOCC [     4,    0,    0,    0,    0,    0,    0,    2 ]

  Energy converged.

  @RHF Final Energy:   -43.69972985831161

   => Energetics <=

    Nuclear Repulsion Energy =              5.5702864062105295
    One-Electron Energy =                 -68.4820129085562428
    Two-Electron Energy =                  19.2119966440340981
    DFT Exchange-Correlation Energy =       0.0000000000000000
    Empirical Dispersion Energy =           0.0000000000000000
    PCM Polarization Energy =               0.0000000000000000
    EFP Energy =                            0.0000000000000000
    Total Energy =                        -43.6997298583116134


  Saving occupied orbitals to File 180.

*** tstop() called on compute-0-0.local at Tue Aug 15 00:37:37 2017
Module time:
	user time   =       0.24 seconds =       0.00 minutes
	system time =       0.01 seconds =       0.00 minutes
	total time  =          5 seconds =       0.08 minutes
Total time:
	user time   =       0.24 seconds =       0.00 minutes
	system time =       0.01 seconds =       0.00 minutes
	total time  =          5 seconds =       0.08 minutes


Properties will be evaluated at   0.000000,   0.000000,   0.000000 Bohr

Properties computed using the SCF density matrix

  Nuclear Dipole Moment: (a.u.)
     X:     0.0000      Y:     0.0000      Z:     0.0000

  Electronic Dipole Moment: (a.u.)
     X:     0.0000      Y:     0.0000      Z:     0.0000

  Dipole Moment: (a.u.)
     X:     0.0000      Y:     0.0000      Z:     0.0000     Total:     0.0000

  Dipole Moment: (Debye)
     X:     0.0000      Y:     0.0000      Z:     0.0000     Total:     0.0000

 MINTS: Wrapper to libmints.
   by Justin Turney

   Calculation information:
      Number of atoms:                   3
      Number of AO shells:              15
      Number of SO shells:              10
      Number of primitives:             42
      Number of atomic orbitals:        27
      Number of basis functions:        27

      Number of irreps:                  8
      Integral cutoff                 0.00e+00
      Number of functions per irrep: [   8    2    2    0    0    4    4    7 ]

 OEINTS: Overlap, kinetic, potential, dipole, and quadrupole integrals
         stored in file 35.

      Computing two-electron integrals...done
      Computed 11211 non-zero two-electron integrals.
        Stored in file 33.


*** tstart() called on compute-0-0.local
*** at Tue Aug 15 00:37:37 2017


	Wfn Parameters:
	--------------------
	Wavefunction         = CCSD_T
	Number of irreps     = 8
	Number of MOs        = 27
	Number of active MOs = 24
	AO-Basis             = NONE
	Semicanonical        = false
	Reference            = RHF
	Print Level          = 1

	IRREP	# MOs	# FZDC	# DOCC	# SOCC	# VIRT	# FZVR
	-----	-----	------	------	------	------	------
	 Ag	   8	    2	    2	    0	    4	    0
	 B1g	   2	    0	    0	    0	    2	    0
	 B2g	   2	    0	    0	    0	    2	    0
	 B3g	   0	    0	    0	    0	    0	    0
	 Au	   0	    0	    0	    0	    0	    0
	 B1u	   4	    0	    0	    0	    4	    0
	 B2u	   4	    0	    0	    0	    4	    0
	 B3u	   7	    1	    1	    0	    5	    0
	Transforming integrals...
	IWL integrals will be deleted.
	(OO|OO)...
	Presorting SO-basis two-electron integrals.
	Sorting File: SO Ints (nn|nn) nbuckets = 1
	Transforming the one-electron integrals and constructing Fock matrices
	Starting first half-transformation.
	Sorting half-transformed integrals.
	First half integral transformation complete.
	Starting second half-transformation.
	Two-electron integral transformation complete.
	(OO|OV)...
	Starting second half-transformation.
	Two-electron integral transformation complete.
	(OO|VV)...
	Starting second half-transformation.
	Two-electron integral transformation complete.
	(OV|OO)...
	Starting first half-transformation.
	Sorting half-transformed integrals.
	First half integral transformation complete.
	Starting second half-transformation.
	Two-electron integral transformation complete.
	(OV|OV)...
	Starting second half-transformation.
	Two-electron integral transformation complete.
	(OV|VV)...
	Starting second half-transformation.
	Two-electron integral transformation complete.
	(VV|OO)...
	Starting first half-transformation.
	Sorting half-transformed integrals.
	First half integral transformation complete.
	Starting second half-transformation.
	Two-electron integral transformation complete.
	(VV|OV)...
	Starting second half-transformation.
	Two-electron integral transformation complete.
	(VV|VV)...
	Starting second half-transformation.
	Two-electron integral transformation complete.
	Frozen core energy     =    -45.00683679807882

	Size of irrep 0 of <ab|cd> integrals:      0.007 (MW) /      0.052 (MB)
	Size of irrep 1 of <ab|cd> integrals:      0.003 (MW) /      0.025 (MB)
	Size of irrep 2 of <ab|cd> integrals:      0.003 (MW) /      0.025 (MB)
	Size of irrep 3 of <ab|cd> integrals:      0.002 (MW) /      0.013 (MB)
	Size of irrep 4 of <ab|cd> integrals:      0.001 (MW) /      0.008 (MB)
	Size of irrep 5 of <ab|cd> integrals:      0.003 (MW) /      0.022 (MB)
	Size of irrep 6 of <ab|cd> integrals:      0.003 (MW) /      0.022 (MB)
	Size of irrep 7 of <ab|cd> integrals:      0.005 (MW) /      0.041 (MB)
	Total:                                     0.026 (MW) /      0.208 (MB)

	Size of irrep 0 of <ia|bc> integrals:      0.001 (MW) /      0.008 (MB)
	Size of irrep 1 of <ia|bc> integrals:      0.000 (MW) /      0.004 (MB)
	Size of irrep 2 of <ia|bc> integrals:      0.000 (MW) /      0.004 (MB)
	Size of irrep 3 of <ia|bc> integrals:      0.000 (MW) /      0.000 (MB)
	Size of irrep 4 of <ia|bc> integrals:      0.000 (MW) /      0.000 (MB)
	Size of irrep 5 of <ia|bc> integrals:      0.001 (MW) /      0.004 (MB)
	Size of irrep 6 of <ia|bc> integrals:      0.001 (MW) /      0.004 (MB)
	Size of irrep 7 of <ia|bc> integrals:      0.001 (MW) /      0.008 (MB)
	Total:                                     0.004 (MW) /      0.032 (MB)

	Size of irrep 0 of tijab amplitudes:       0.000 (MW) /      0.003 (MB)
	Size of irrep 1 of tijab amplitudes:       0.000 (MW) /      0.000 (MB)
	Size of irrep 2 of tijab amplitudes:       0.000 (MW) /      0.000 (MB)
	Size of irrep 3 of tijab amplitudes:       0.000 (MW) /      0.000 (MB)
	Size of irrep 4 of tijab amplitudes:       0.000 (MW) /      0.000 (MB)
	Size of irrep 5 of tijab amplitudes:       0.000 (MW) /      0.000 (MB)
	Size of irrep 6 of tijab amplitudes:       0.000 (MW) /      0.000 (MB)
	Size of irrep 7 of tijab amplitudes:       0.000 (MW) /      0.002 (MB)
	Total:                                     0.001 (MW) /      0.006 (MB)

	Nuclear Rep. energy          =      5.57028640621053
	SCF energy                   =    -43.69972985831161
	One-electron energy          =     -6.71568274221372
	Two-electron energy          =      2.45250327577097
	Reference energy             =    -43.69972985831104

*** tstop() called on compute-0-0.local at Tue Aug 15 00:37:37 2017
Module time:
	user time   =       0.04 seconds =       0.00 minutes
	system time =       0.03 seconds =       0.00 minutes
	total time  =          0 seconds =       0.00 minutes
Total time:
	user time   =       0.35 seconds =       0.01 minutes
	system time =       0.05 seconds =       0.00 minutes
	total time  =          5 seconds =       0.08 minutes

*** tstart() called on compute-0-0.local
*** at Tue Aug 15 00:37:37 2017

            **************************
            *                        *
            *        CCENERGY        *
            *                        *
            **************************

    Nuclear Rep. energy (wfn)     =    5.570286406210531
    SCF energy          (wfn)     =  -43.699729858311613
    Reference energy    (file100) =  -43.699729858311038

    Input parameters:
    -----------------
    Wave function   =     CCSD_T
    Reference wfn   =     RHF
    Brueckner       =     No
    Memory (Mbytes) =     24000.0
    Maxiter         =     50
    R_Convergence   =     1.0e-07
    E_Convergence   =     1.0e-14
    Restart         =     Yes
    DIIS            =     Yes
    AO Basis        =     NONE
    ABCD            =     NEW
    Cache Level     =     2
    Cache Type      =     LOW
    Print Level     =     1
    Num. of threads =     1
    # Amps to Print =     10
    Print MP2 Amps? =     No
    Analyze T2 Amps =     No
    Print Pair Ener =     No
    Local CC        =     No
    SCS-MP2         =     False
    SCSN-MP2        =     False
    SCS-CCSD        =     False

MP2 correlation energy -0.0717658064259923
                Solving CC Amplitude Equations
                ------------------------------
  Iter             Energy              RMS        T1Diag      D1Diag    New D1Diag    D2Diag
  ----     ---------------------    ---------   ----------  ----------  ----------   --------
     0        -0.071765806425992    0.000e+00    0.000000    0.000000    0.000000    0.170312
     1        -0.105163028622188    1.429e-01    0.004469    0.006963    0.006963    0.255014
     2        -0.137135885796225    7.463e-02    0.012429    0.019186    0.019186    0.342642
     3        -0.136764883233835    7.946e-03    0.014002    0.021706    0.021706    0.343787
     4        -0.137383775172980    2.482e-03    0.014402    0.022420    0.022420    0.345692
     5        -0.137609331176555    6.754e-04    0.014540    0.022692    0.022692    0.346342
     6        -0.137524246252923    3.360e-04    0.014515    0.022655    0.022655    0.346111
     7        -0.137471495836772    1.265e-04    0.014493    0.022621    0.022621    0.345976
     8        -0.137498083859201    8.376e-05    0.014495    0.022623    0.022623    0.346060
     9        -0.137498711462071    2.915e-05    0.014489    0.022611    0.022611    0.346069
    10        -0.137499577213661    1.310e-05    0.014488    0.022608    0.022608    0.346073
    11        -0.137499178987458    6.367e-06    0.014487    0.022607    0.022607    0.346073
    12        -0.137499186424877    1.948e-06    0.014487    0.022606    0.022606    0.346073
    13        -0.137499229881237    8.928e-07    0.014487    0.022606    0.022606    0.346074
    14        -0.137499231170343    3.071e-07    0.014487    0.022606    0.022606    0.346074
    15        -0.137499224611116    1.114e-07    0.014487    0.022606    0.022606    0.346074
    16        -0.137499223254021    6.255e-08    0.014487    0.022606    0.022606    0.346074
    17        -0.137499223493757    3.745e-08    0.014487    0.022606    0.022606    0.346074
    18        -0.137499224602599    1.554e-08    0.014487    0.022606    0.022606    0.346074
    19        -0.137499225612161    8.048e-09    0.014487    0.022606    0.022606    0.346074
    20        -0.137499225826018    4.321e-09    0.014487    0.022606    0.022606    0.346074
    21        -0.137499225845056    2.272e-09    0.014487    0.022606    0.022606    0.346074
    22        -0.137499225766454    1.053e-09    0.014487    0.022606    0.022606    0.346074
    23        -0.137499225752235    4.378e-10    0.014487    0.022606    0.022606    0.346074
    24        -0.137499225756561    2.075e-10    0.014487    0.022606    0.022606    0.346074
    25        -0.137499225763298    7.828e-11    0.014487    0.022606    0.022606    0.346074
    26        -0.137499225766260    3.372e-11    0.014487    0.022606    0.022606    0.346074
    27        -0.137499225766830    1.442e-11    0.014487    0.022606    0.022606    0.346074
    28        -0.137499225766570    6.475e-12    0.014487    0.022606    0.022606    0.346074
    29        -0.137499225766143    3.790e-12    0.014487    0.022606    0.022606    0.346074
    30        -0.137499225765980    1.974e-12    0.014487    0.022606    0.022606    0.346074
    31        -0.137499225765942    1.083e-12    0.014487    0.022606    0.022606    0.346074
    32        -0.137499225765976    5.559e-13    0.014487    0.022606    0.022606    0.346074
    33        -0.137499225766004    2.815e-13    0.014487    0.022606    0.022606    0.346074
    34        -0.137499225766013    1.074e-13    0.014487    0.022606    0.022606    0.346074
    35        -0.137499225766012    4.686e-14    0.014487    0.022606    0.022606    0.346074

    Iterations converged.


    Largest TIA Amplitudes:
              1   0         0.0165368020
              0   1         0.0153097701
              2  17         0.0129557253
              2  18         0.0129366249
              2  16         0.0110624451
              1   3        -0.0093259708
              0   0        -0.0085545599
              1   2        -0.0082414348
              1   1         0.0042669334
              2  19         0.0041103753

    Largest TIjAb Amplitudes:
      1   1  16  16        -0.0873032015
      2   2   4   4        -0.0844962426
      2   2   6   6        -0.0844962426
      2   2   0   0        -0.0803382728
      0   0  16  16        -0.0750695920
      1   1   9   9        -0.0709254135
      1   1  13  13        -0.0709254135
      0   1  16  17         0.0701714457
      1   0  17  16         0.0701714457
      1   1   8   8        -0.0689089763

    SCF energy       (wfn)                    =  -43.699729858311613
    Reference energy (file100)                =  -43.699729858311038

    Opposite-spin MP2 correlation energy      =   -0.070293319432091
    Same-spin MP2 correlation energy          =   -0.001472486993901
    MP2 correlation energy                    =   -0.071765806425992
      * MP2 total energy                      =  -43.771495664737031

    Opposite-spin CCSD correlation energy     =   -0.135815566494590
    Same-spin CCSD correlation energy         =   -0.001683659271597
    CCSD correlation energy                   =   -0.137499225766012
      * CCSD total energy                     =  -43.837229084077052


*** tstop() called on compute-0-0.local at Tue Aug 15 00:37:49 2017
Module time:
	user time   =       0.41 seconds =       0.01 minutes
	system time =       0.56 seconds =       0.01 minutes
	total time  =         12 seconds =       0.20 minutes
Total time:
	user time   =       0.76 seconds =       0.01 minutes
	system time =       0.61 seconds =       0.01 minutes
	total time  =         17 seconds =       0.28 minutes

*** tstart() called on compute-0-0.local
*** at Tue Aug 15 00:37:49 2017

            **************************
            *                        *
            *        CCTRIPLES       *
            *                        *
            **************************


    Wave function   =    CCSD_T
    Reference wfn   =      RHF

    Nuclear Rep. energy (wfn)                =    5.570286406210531
    SCF energy          (wfn)                =  -43.699729858311613
    Reference energy    (file100)            =  -43.699729858311038
    CCSD energy         (file100)            =   -0.137499225766012
    Total CCSD energy   (file100)            =  -43.837229084077052

    Number of ijk index combinations:               10
    Memory available in words        :      3000000000
    ~Words needed per explicit thread:             500
    Number of threads for explicit ijk threading:    1

    (T) energy                                =   -0.000426626490814
      * CCSD(T) total energy                  =  -43.837655710567866


*** tstop() called on compute-0-0.local at Tue Aug 15 00:37:50 2017
Module time:
	user time   =       0.01 seconds =       0.00 minutes
	system time =       0.02 seconds =       0.00 minutes
	total time  =          1 seconds =       0.02 minutes
Total time:
	user time   =       0.77 seconds =       0.01 minutes
	system time =       0.63 seconds =       0.01 minutes
	total time  =         18 seconds =       0.30 minutes

*** Psi4 exiting successfully. Buy a developer a beer!
