    -----------------------------------------------------------------------
          Psi4: An Open-Source Ab Initio Electronic Structure Package
                              Psi4 1.0.0 Driver

                          Git: Rev {master} 6a9a71b dirty

    J. M. Turney, A. C. Simmonett, R. M. Parrish, E. G. Hohenstein,
    F. A. Evangelista, J. T. Fermann, B. J. Mintz, L. A. Burns, J. J. Wilke,
    M. L. Abrams, N. J. Russ, M. L. Leininger, C. L. Janssen, E. T. Seidl,
    W. D. Allen, H. F. Schaefer, R. A. King, E. F. Valeev, C. D. Sherrill,
    and T. D. Crawford, WIREs Comput. Mol. Sci. 2, 556-565 (2012)
    (doi: 10.1002/wcms.93)

                         Additional Contributions by
    A. E. DePrince, U. Bozkaya, A. Yu. Sokolov, D. G. A. Smith, R. Di Remigio,
    R. M. Richard, J. F. Gonthier, H. R. McAlexander, M. Saitow, and
    B. P. Pritchard
    -----------------------------------------------------------------------


    Psi4 started on: Tue Aug 15 00:50:44 2017

    Process ID:   9613
    PSI4DATADIR: /home/yhliu/psi4conda/share/psi4
    Memory level set to 256.000 MB

  ==> Input File <==

--------------------------------------------------------------------------
memory 24 Gb
molecule be3 {
0 1
Be  -6.8    0.0 0.0
Be   0.0    0.0 0.0
Be   6.8    0.0 0.0
units angstrom    
}

set basis 6-31g
set freeze_core true
set PRINT_BASIS True
set PUREAM False
set E_CONVERGENCE 1e-14
energy('ccsd(t)')
--------------------------------------------------------------------------
/home/yhliu/psi4conda/lib/python2.7/site-packages/v2rdm_casscf/v2rdm_casscf.so loaded.

  Memory set to  24.000 GiB by Python script.

*** tstart() called on compute-0-0.local
*** at Tue Aug 15 00:50:45 2017


         ---------------------------------------------------------
                                   SCF
            by Justin Turney, Rob Parrish, and Andy Simmonett
                              RHF Reference
                        1 Threads,  24000 MiB Core
         ---------------------------------------------------------

  ==> Geometry <==

    Molecular point group: d2h
    Full point group: D_inf_h

    Geometry (in Angstrom), charge = 0, multiplicity = 1:

       Center              X                  Y                   Z               Mass       
    ------------   -----------------  -----------------  -----------------  -----------------
          BE         -6.800000000000    -0.000000000000     0.000000000000     9.012182201000
          BE          0.000000000000     0.000000000000     0.000000000000     9.012182201000
          BE          6.800000000000     0.000000000000     0.000000000000     9.012182201000

  Running in d2h symmetry.

  Rotational constants: A = ************  B =      0.02023  C =      0.02023 [cm^-1]
  Rotational constants: A = ************  B =    606.37238  C =    606.37238 [MHz]
  Nuclear repulsion =    3.112807109352940

  Charge       = 0
  Multiplicity = 1
  Electrons    = 12
  Nalpha       = 6
  Nbeta        = 6

  ==> Algorithm <==

  SCF Algorithm Type is PK.
  DIIS enabled.
  MOM disabled.
  Fractional occupation disabled.
  Guess Type is SAD.
  Energy threshold   = 1.00e-14
  Density threshold  = 1.00e-08
  Integral threshold = 0.00e+00

  ==> Primary Basis <==

  Basis Set: 6-31G
    Number of shells: 15
    Number of basis function: 27
    Number of Cartesian functions: 27
    Spherical Harmonics?: false
    Max angular momentum: 1

  -AO BASIS SET INFORMATION:
    Name                   = 6-31G
    Total number of shells = 15
    Number of primitives   = 42
    Number of AO           = 27
    Number of SO           = 27
    Maximum AM             = 1
    Spherical Harmonics    = FALSE

  -Contraction Scheme:
    Atom   Type   All Primitives // Shells:
   ------ ------ --------------------------
       1    BE     10s 4p // 3s 2p 
       2    BE     10s 4p // 3s 2p 
       3    BE     10s 4p // 3s 2p 

  ==> AO Basis Functions <==

    [ 6-31G ]
    cartesian
    ****
   BE   1
    S   6 1.00
                      1264.58570000           0.00194480
                       189.93681000           0.01483510
                        43.15908900           0.07209060
                        12.09866300           0.23715420
                         3.80632320           0.46919870
                         1.27289030           0.35652020
    S   3 1.00
                         3.19646310          -0.11264870
                         0.74781330          -0.22950640
                         0.21996630           1.18691670
    P   3 1.00
                         3.19646310           0.05598020
                         0.74781330           0.26155060
                         0.21996630           0.79397230
    S   1 1.00
                         0.08230990           1.00000000
    P   1 1.00
                         0.08230990           1.00000000
    ****
   BE   2
    S   6 1.00
                      1264.58570000           0.00194480
                       189.93681000           0.01483510
                        43.15908900           0.07209060
                        12.09866300           0.23715420
                         3.80632320           0.46919870
                         1.27289030           0.35652020
    S   3 1.00
                         3.19646310          -0.11264870
                         0.74781330          -0.22950640
                         0.21996630           1.18691670
    P   3 1.00
                         3.19646310           0.05598020
                         0.74781330           0.26155060
                         0.21996630           0.79397230
    S   1 1.00
                         0.08230990           1.00000000
    P   1 1.00
                         0.08230990           1.00000000
    ****

  ==> Pre-Iterations <==

   -------------------------------------------------------
    Irrep   Nso     Nmo     Nalpha   Nbeta   Ndocc  Nsocc
   -------------------------------------------------------
     Ag         8       8       0       0       0       0
     B1g        2       2       0       0       0       0
     B2g        2       2       0       0       0       0
     B3g        0       0       0       0       0       0
     Au         0       0       0       0       0       0
     B1u        4       4       0       0       0       0
     B2u        4       4       0       0       0       0
     B3u        7       7       0       0       0       0
   -------------------------------------------------------
    Total      27      27       6       6       6       0
   -------------------------------------------------------

  ==> Integral Setup <==

  Using in-core PK algorithm.
   Calculation information:
      Number of atoms:                   3
      Number of AO shells:              15
      Number of primitives:             42
      Number of atomic orbitals:        27
      Number of basis functions:        27

      Integral cutoff                 1.00e-12
      Number of threads:                 1

  Performing in-core PK
  Using 143262 doubles for integral storage.
  We computed 3655 shell quartets total.
  Whereas there are 7260 unique shell quartets.
  ==> DiskJK: Disk-Based J/K Matrices <==

    J tasked:                  Yes
    K tasked:                  Yes
    wK tasked:                  No
    Memory (MB):             17166
    Schwarz Cutoff:          1E-12

    OpenMP threads:              1
  Minimum eigenvalue in the overlap matrix is 1.2780601677E-01.
  Using Symmetric Orthogonalization.
  SCF Guess: Superposition of Atomic Densities via on-the-fly atomic UHF.

  ==> Iterations <==

                        Total Energy        Delta E     RMS |[F,P]|

   @RHF iter   0:   -43.70029270666094   -4.37003e+01   2.48105e-04 
   @RHF iter   1:   -43.70031061112432   -1.79045e-05   4.04704e-05 
   @RHF iter   2:   -43.70031125029590   -6.39172e-07   7.86188e-06 DIIS
   @RHF iter   3:   -43.70031127864391   -2.83480e-08   3.50400e-07 DIIS
   @RHF iter   4:   -43.70031127869522   -5.13083e-11   2.61072e-08 DIIS
   @RHF iter   5:   -43.70031127869545   -2.34479e-13   1.59087e-09 DIIS
   @RHF iter   6:   -43.70031127869544    7.10543e-15   1.21751e-10 DIIS

  ==> Post-Iterations <==

    Orbital Energies (a.u.)
    -----------------------

    Doubly Occupied:                                                      

       1Ag    -4.706920     1B3u   -4.706906     2Ag    -4.706906  
       3Ag    -0.301731     2B3u   -0.301302     4Ag    -0.300869  

    Virtual:                                                              

       3B3u    0.077231     1B1u    0.081940     1B2u    0.081940  
       5Ag     0.082408     1B1g    0.082431     1B2g    0.082431  
       2B1u    0.082918     2B2u    0.082918     4B3u    0.087562  
       6Ag     0.434530     5B3u    0.437112     7Ag     0.442835  
       6B3u    0.453490     3B1u    0.463583     3B2u    0.463583  
       2B1g    0.464924     2B2g    0.464924     4B1u    0.466269  
       4B2u    0.466269     8Ag     0.467425     7B3u    0.480649  

    Final Occupation by Irrep:
             Ag   B1g   B2g   B3g    Au   B1u   B2u   B3u 
    DOCC [     4,    0,    0,    0,    0,    0,    0,    2 ]

  Energy converged.

  @RHF Final Energy:   -43.70031127869544

   => Energetics <=

    Nuclear Repulsion Energy =              3.1128071093529397
    One-Electron Energy =                 -63.5769669027028783
    Two-Electron Energy =                  16.7638485146544980
    DFT Exchange-Correlation Energy =       0.0000000000000000
    Empirical Dispersion Energy =           0.0000000000000000
    PCM Polarization Energy =               0.0000000000000000
    EFP Energy =                            0.0000000000000000
    Total Energy =                        -43.7003112786954375


  Saving occupied orbitals to File 180.

*** tstop() called on compute-0-0.local at Tue Aug 15 00:50:45 2017
Module time:
	user time   =       0.24 seconds =       0.00 minutes
	system time =       0.01 seconds =       0.00 minutes
	total time  =          0 seconds =       0.00 minutes
Total time:
	user time   =       0.24 seconds =       0.00 minutes
	system time =       0.01 seconds =       0.00 minutes
	total time  =          0 seconds =       0.00 minutes


Properties will be evaluated at   0.000000,   0.000000,   0.000000 Bohr

Properties computed using the SCF density matrix

  Nuclear Dipole Moment: (a.u.)
     X:     0.0000      Y:     0.0000      Z:     0.0000

  Electronic Dipole Moment: (a.u.)
     X:     0.0000      Y:     0.0000      Z:     0.0000

  Dipole Moment: (a.u.)
     X:     0.0000      Y:     0.0000      Z:     0.0000     Total:     0.0000

  Dipole Moment: (Debye)
     X:     0.0000      Y:     0.0000      Z:     0.0000     Total:     0.0000

 MINTS: Wrapper to libmints.
   by Justin Turney

   Calculation information:
      Number of atoms:                   3
      Number of AO shells:              15
      Number of SO shells:              10
      Number of primitives:             42
      Number of atomic orbitals:        27
      Number of basis functions:        27

      Number of irreps:                  8
      Integral cutoff                 0.00e+00
      Number of functions per irrep: [   8    2    2    0    0    4    4    7 ]

 OEINTS: Overlap, kinetic, potential, dipole, and quadrupole integrals
         stored in file 35.

      Computing two-electron integrals...done
      Computed 11211 non-zero two-electron integrals.
        Stored in file 33.


*** tstart() called on compute-0-0.local
*** at Tue Aug 15 00:50:45 2017


	Wfn Parameters:
	--------------------
	Wavefunction         = CCSD_T
	Number of irreps     = 8
	Number of MOs        = 27
	Number of active MOs = 24
	AO-Basis             = NONE
	Semicanonical        = false
	Reference            = RHF
	Print Level          = 1

	IRREP	# MOs	# FZDC	# DOCC	# SOCC	# VIRT	# FZVR
	-----	-----	------	------	------	------	------
	 Ag	   8	    2	    2	    0	    4	    0
	 B1g	   2	    0	    0	    0	    2	    0
	 B2g	   2	    0	    0	    0	    2	    0
	 B3g	   0	    0	    0	    0	    0	    0
	 Au	   0	    0	    0	    0	    0	    0
	 B1u	   4	    0	    0	    0	    4	    0
	 B2u	   4	    0	    0	    0	    4	    0
	 B3u	   7	    1	    1	    0	    5	    0
	Transforming integrals...
	IWL integrals will be deleted.
	(OO|OO)...
	Presorting SO-basis two-electron integrals.
	Sorting File: SO Ints (nn|nn) nbuckets = 1
	Transforming the one-electron integrals and constructing Fock matrices
	Starting first half-transformation.
	Sorting half-transformed integrals.
	First half integral transformation complete.
	Starting second half-transformation.
	Two-electron integral transformation complete.
	(OO|OV)...
	Starting second half-transformation.
	Two-electron integral transformation complete.
	(OO|VV)...
	Starting second half-transformation.
	Two-electron integral transformation complete.
	(OV|OO)...
	Starting first half-transformation.
	Sorting half-transformed integrals.
	First half integral transformation complete.
	Starting second half-transformation.
	Two-electron integral transformation complete.
	(OV|OV)...
	Starting second half-transformation.
	Two-electron integral transformation complete.
	(OV|VV)...
	Starting second half-transformation.
	Two-electron integral transformation complete.
	(VV|OO)...
	Starting first half-transformation.
	Sorting half-transformed integrals.
	First half integral transformation complete.
	Starting second half-transformation.
	Two-electron integral transformation complete.
	(VV|OV)...
	Starting second half-transformation.
	Two-electron integral transformation complete.
	(VV|VV)...
	Starting second half-transformation.
	Two-electron integral transformation complete.
	Frozen core energy     =    -43.16371157893497

	Size of irrep 0 of <ab|cd> integrals:      0.007 (MW) /      0.052 (MB)
	Size of irrep 1 of <ab|cd> integrals:      0.003 (MW) /      0.025 (MB)
	Size of irrep 2 of <ab|cd> integrals:      0.003 (MW) /      0.025 (MB)
	Size of irrep 3 of <ab|cd> integrals:      0.002 (MW) /      0.013 (MB)
	Size of irrep 4 of <ab|cd> integrals:      0.001 (MW) /      0.008 (MB)
	Size of irrep 5 of <ab|cd> integrals:      0.003 (MW) /      0.022 (MB)
	Size of irrep 6 of <ab|cd> integrals:      0.003 (MW) /      0.022 (MB)
	Size of irrep 7 of <ab|cd> integrals:      0.005 (MW) /      0.041 (MB)
	Total:                                     0.026 (MW) /      0.208 (MB)

	Size of irrep 0 of <ia|bc> integrals:      0.001 (MW) /      0.008 (MB)
	Size of irrep 1 of <ia|bc> integrals:      0.000 (MW) /      0.004 (MB)
	Size of irrep 2 of <ia|bc> integrals:      0.000 (MW) /      0.004 (MB)
	Size of irrep 3 of <ia|bc> integrals:      0.000 (MW) /      0.000 (MB)
	Size of irrep 4 of <ia|bc> integrals:      0.000 (MW) /      0.000 (MB)
	Size of irrep 5 of <ia|bc> integrals:      0.001 (MW) /      0.004 (MB)
	Size of irrep 6 of <ia|bc> integrals:      0.001 (MW) /      0.004 (MB)
	Size of irrep 7 of <ia|bc> integrals:      0.001 (MW) /      0.008 (MB)
	Total:                                     0.004 (MW) /      0.032 (MB)

	Size of irrep 0 of tijab amplitudes:       0.000 (MW) /      0.003 (MB)
	Size of irrep 1 of tijab amplitudes:       0.000 (MW) /      0.000 (MB)
	Size of irrep 2 of tijab amplitudes:       0.000 (MW) /      0.000 (MB)
	Size of irrep 3 of tijab amplitudes:       0.000 (MW) /      0.000 (MB)
	Size of irrep 4 of tijab amplitudes:       0.000 (MW) /      0.000 (MB)
	Size of irrep 5 of tijab amplitudes:       0.000 (MW) /      0.000 (MB)
	Size of irrep 6 of tijab amplitudes:       0.000 (MW) /      0.000 (MB)
	Size of irrep 7 of tijab amplitudes:       0.000 (MW) /      0.002 (MB)
	Total:                                     0.001 (MW) /      0.006 (MB)

	Nuclear Rep. energy          =      3.11280710935294
	SCF energy                   =    -43.70031127869544
	One-electron energy          =     -5.49100954328793
	Two-electron energy          =      1.84160273417328
	Reference energy             =    -43.70031127869668

*** tstop() called on compute-0-0.local at Tue Aug 15 00:50:45 2017
Module time:
	user time   =       0.03 seconds =       0.00 minutes
	system time =       0.03 seconds =       0.00 minutes
	total time  =          0 seconds =       0.00 minutes
Total time:
	user time   =       0.34 seconds =       0.01 minutes
	system time =       0.04 seconds =       0.00 minutes
	total time  =          0 seconds =       0.00 minutes

*** tstart() called on compute-0-0.local
*** at Tue Aug 15 00:50:45 2017

            **************************
            *                        *
            *        CCENERGY        *
            *                        *
            **************************

    Nuclear Rep. energy (wfn)     =    3.112807109352940
    SCF energy          (wfn)     =  -43.700311278695445
    Reference energy    (file100) =  -43.700311278696681

    Input parameters:
    -----------------
    Wave function   =     CCSD_T
    Reference wfn   =     RHF
    Brueckner       =     No
    Memory (Mbytes) =     24000.0
    Maxiter         =     50
    R_Convergence   =     1.0e-07
    E_Convergence   =     1.0e-14
    Restart         =     Yes
    DIIS            =     Yes
    AO Basis        =     NONE
    ABCD            =     NEW
    Cache Level     =     2
    Cache Type      =     LOW
    Print Level     =     1
    Num. of threads =     1
    # Amps to Print =     10
    Print MP2 Amps? =     No
    Analyze T2 Amps =     No
    Print Pair Ener =     No
    Local CC        =     No
    SCS-MP2         =     False
    SCSN-MP2        =     False
    SCS-CCSD        =     False

MP2 correlation energy -0.0698886785834391
                Solving CC Amplitude Equations
                ------------------------------
  Iter             Energy              RMS        T1Diag      D1Diag    New D1Diag    D2Diag
  ----     ---------------------    ---------   ----------  ----------  ----------   --------
     0        -0.069888678583439    0.000e+00    0.000000    0.000000    0.000000    0.162200
     1        -0.103850552496075    1.462e-01    0.004410    0.006271    0.006271    0.245094
     2        -0.138347181382066    7.696e-02    0.011221    0.015991    0.015991    0.333538
     3        -0.137296379503024    5.020e-03    0.011688    0.016674    0.016674    0.332089
     4        -0.137956679605940    1.548e-03    0.011803    0.016839    0.016839    0.333800
     5        -0.137963918138802    7.245e-05    0.011791    0.016824    0.016824    0.333827
     6        -0.137960696272792    1.017e-05    0.011790    0.016823    0.016823    0.333820
     7        -0.137959953109148    3.691e-06    0.011789    0.016822    0.016822    0.333818
     8        -0.137960867184455    2.525e-06    0.011789    0.016822    0.016822    0.333821
     9        -0.137960942698530    4.108e-07    0.011789    0.016822    0.016822    0.333821
    10        -0.137960980526879    1.839e-07    0.011789    0.016822    0.016822    0.333821
    11        -0.137960981555006    3.877e-08    0.011789    0.016822    0.016822    0.333821
    12        -0.137960981799849    1.422e-08    0.011789    0.016822    0.016822    0.333821
    13        -0.137960981913791    5.259e-09    0.011789    0.016822    0.016822    0.333821
    14        -0.137960981935384    1.218e-09    0.011789    0.016822    0.016822    0.333821
    15        -0.137960981943661    6.987e-10    0.011789    0.016822    0.016822    0.333821
    16        -0.137960981947226    3.841e-10    0.011789    0.016822    0.016822    0.333821
    17        -0.137960981944529    2.199e-10    0.011789    0.016822    0.016822    0.333821
    18        -0.137960981941128    1.123e-10    0.011789    0.016822    0.016822    0.333821
    19        -0.137960981940187    3.398e-11    0.011789    0.016822    0.016822    0.333821
    20        -0.137960981940029    1.365e-11    0.011789    0.016822    0.016822    0.333821
    21        -0.137960981940139    5.951e-12    0.011789    0.016822    0.016822    0.333821
    22        -0.137960981940238    3.043e-12    0.011789    0.016822    0.016822    0.333821
    23        -0.137960981940290    1.367e-12    0.011789    0.016822    0.016822    0.333821
    24        -0.137960981940289    4.873e-13    0.011789    0.016822    0.016822    0.333821
    25        -0.137960981940279    2.118e-13    0.011789    0.016822    0.016822    0.333821

    Iterations converged.


    Largest TIA Amplitudes:
              0   1        -0.0164154248
              1   2        -0.0159870889
              2  18        -0.0155829156
              2  19        -0.0054713094
              1   3        -0.0036235483
              0   3         0.0026470915
              0   2        -0.0024569741
              2  20        -0.0022138990
              1   1         0.0017696073
              1   0        -0.0007078375

    Largest TIjAb Amplitudes:
      2   2   4   4        -0.0861753780
      2   2   6   6        -0.0861753780
      2   2   0   0        -0.0858125549
      1   1  17  17        -0.0662357562
      0   1  16  17         0.0660223678
      1   0  17  16         0.0660223678
      0   0  16  16        -0.0658178734
      0   0   8   8        -0.0654145421
      0   0  12  12        -0.0654145421
      0   1   8   9        -0.0653659415

    SCF energy       (wfn)                    =  -43.700311278695445
    Reference energy (file100)                =  -43.700311278696681

    Opposite-spin MP2 correlation energy      =   -0.069843949146330
    Same-spin MP2 correlation energy          =   -0.000044729437109
    MP2 correlation energy                    =   -0.069888678583439
      * MP2 total energy                      =  -43.770199957280120

    Opposite-spin CCSD correlation energy     =   -0.137914815104614
    Same-spin CCSD correlation energy         =   -0.000046166839848
    CCSD correlation energy                   =   -0.137960981940279
      * CCSD total energy                     =  -43.838272260636963


*** tstop() called on compute-0-0.local at Tue Aug 15 00:50:49 2017
Module time:
	user time   =       0.25 seconds =       0.00 minutes
	system time =       0.24 seconds =       0.00 minutes
	total time  =          4 seconds =       0.07 minutes
Total time:
	user time   =       0.59 seconds =       0.01 minutes
	system time =       0.28 seconds =       0.00 minutes
	total time  =          4 seconds =       0.07 minutes

*** tstart() called on compute-0-0.local
*** at Tue Aug 15 00:50:49 2017

            **************************
            *                        *
            *        CCTRIPLES       *
            *                        *
            **************************


    Wave function   =    CCSD_T
    Reference wfn   =      RHF

    Nuclear Rep. energy (wfn)                =    3.112807109352940
    SCF energy          (wfn)                =  -43.700311278695445
    Reference energy    (file100)            =  -43.700311278696681
    CCSD energy         (file100)            =   -0.137960981940279
    Total CCSD energy   (file100)            =  -43.838272260636963

    Number of ijk index combinations:               10
    Memory available in words        :      3000000000
    ~Words needed per explicit thread:             500
    Number of threads for explicit ijk threading:    1

    (T) energy                                =   -0.000004156940235
      * CCSD(T) total energy                  =  -43.838276417577198


*** tstop() called on compute-0-0.local at Tue Aug 15 00:51:27 2017
Module time:
	user time   =       0.01 seconds =       0.00 minutes
	system time =       0.02 seconds =       0.00 minutes
	total time  =         38 seconds =       0.63 minutes
Total time:
	user time   =       0.60 seconds =       0.01 minutes
	system time =       0.30 seconds =       0.01 minutes
	total time  =         42 seconds =       0.70 minutes

*** Psi4 exiting successfully. Buy a developer a beer!
