    -----------------------------------------------------------------------
          Psi4: An Open-Source Ab Initio Electronic Structure Package
                              Psi4 1.0.0 Driver

                          Git: Rev {master} 6a9a71b dirty

    J. M. Turney, A. C. Simmonett, R. M. Parrish, E. G. Hohenstein,
    F. A. Evangelista, J. T. Fermann, B. J. Mintz, L. A. Burns, J. J. Wilke,
    M. L. Abrams, N. J. Russ, M. L. Leininger, C. L. Janssen, E. T. Seidl,
    W. D. Allen, H. F. Schaefer, R. A. King, E. F. Valeev, C. D. Sherrill,
    and T. D. Crawford, WIREs Comput. Mol. Sci. 2, 556-565 (2012)
    (doi: 10.1002/wcms.93)

                         Additional Contributions by
    A. E. DePrince, U. Bozkaya, A. Yu. Sokolov, D. G. A. Smith, R. Di Remigio,
    R. M. Richard, J. F. Gonthier, H. R. McAlexander, M. Saitow, and
    B. P. Pritchard
    -----------------------------------------------------------------------


    Psi4 started on: Tue Aug 15 00:45:11 2017

    Process ID:   9469
    PSI4DATADIR: /home/yhliu/psi4conda/share/psi4
    Memory level set to 256.000 MB

  ==> Input File <==

--------------------------------------------------------------------------
memory 24 Gb
molecule be3 {
0 1
Be  -5.7    0.0 0.0
Be   0.0    0.0 0.0
Be   5.7    0.0 0.0
units angstrom    
}

set basis 6-31g
set freeze_core true
set PRINT_BASIS True
set PUREAM False
set E_CONVERGENCE 1e-14
energy('ccsd(t)')
--------------------------------------------------------------------------
/home/yhliu/psi4conda/lib/python2.7/site-packages/v2rdm_casscf/v2rdm_casscf.so loaded.

  Memory set to  24.000 GiB by Python script.

*** tstart() called on compute-0-0.local
*** at Tue Aug 15 00:45:12 2017


         ---------------------------------------------------------
                                   SCF
            by Justin Turney, Rob Parrish, and Andy Simmonett
                              RHF Reference
                        1 Threads,  24000 MiB Core
         ---------------------------------------------------------

  ==> Geometry <==

    Molecular point group: d2h
    Full point group: D_inf_h

    Geometry (in Angstrom), charge = 0, multiplicity = 1:

       Center              X                  Y                   Z               Mass       
    ------------   -----------------  -----------------  -----------------  -----------------
          BE         -5.700000000000    -0.000000000000     0.000000000000     9.012182201000
          BE          0.000000000000     0.000000000000     0.000000000000     9.012182201000
          BE          5.700000000000     0.000000000000     0.000000000000     9.012182201000

  Running in d2h symmetry.

  Rotational constants: A = ************  B =      0.02879  C =      0.02879 [cm^-1]
  Rotational constants: A = ************  B =    862.99350  C =    862.99350 [MHz]
  Nuclear repulsion =    3.713524270807017

  Charge       = 0
  Multiplicity = 1
  Electrons    = 12
  Nalpha       = 6
  Nbeta        = 6

  ==> Algorithm <==

  SCF Algorithm Type is PK.
  DIIS enabled.
  MOM disabled.
  Fractional occupation disabled.
  Guess Type is SAD.
  Energy threshold   = 1.00e-14
  Density threshold  = 1.00e-08
  Integral threshold = 0.00e+00

  ==> Primary Basis <==

  Basis Set: 6-31G
    Number of shells: 15
    Number of basis function: 27
    Number of Cartesian functions: 27
    Spherical Harmonics?: false
    Max angular momentum: 1

  -AO BASIS SET INFORMATION:
    Name                   = 6-31G
    Total number of shells = 15
    Number of primitives   = 42
    Number of AO           = 27
    Number of SO           = 27
    Maximum AM             = 1
    Spherical Harmonics    = FALSE

  -Contraction Scheme:
    Atom   Type   All Primitives // Shells:
   ------ ------ --------------------------
       1    BE     10s 4p // 3s 2p 
       2    BE     10s 4p // 3s 2p 
       3    BE     10s 4p // 3s 2p 

  ==> AO Basis Functions <==

    [ 6-31G ]
    cartesian
    ****
   BE   1
    S   6 1.00
                      1264.58570000           0.00194480
                       189.93681000           0.01483510
                        43.15908900           0.07209060
                        12.09866300           0.23715420
                         3.80632320           0.46919870
                         1.27289030           0.35652020
    S   3 1.00
                         3.19646310          -0.11264870
                         0.74781330          -0.22950640
                         0.21996630           1.18691670
    P   3 1.00
                         3.19646310           0.05598020
                         0.74781330           0.26155060
                         0.21996630           0.79397230
    S   1 1.00
                         0.08230990           1.00000000
    P   1 1.00
                         0.08230990           1.00000000
    ****
   BE   2
    S   6 1.00
                      1264.58570000           0.00194480
                       189.93681000           0.01483510
                        43.15908900           0.07209060
                        12.09866300           0.23715420
                         3.80632320           0.46919870
                         1.27289030           0.35652020
    S   3 1.00
                         3.19646310          -0.11264870
                         0.74781330          -0.22950640
                         0.21996630           1.18691670
    P   3 1.00
                         3.19646310           0.05598020
                         0.74781330           0.26155060
                         0.21996630           0.79397230
    S   1 1.00
                         0.08230990           1.00000000
    P   1 1.00
                         0.08230990           1.00000000
    ****

  ==> Pre-Iterations <==

   -------------------------------------------------------
    Irrep   Nso     Nmo     Nalpha   Nbeta   Ndocc  Nsocc
   -------------------------------------------------------
     Ag         8       8       0       0       0       0
     B1g        2       2       0       0       0       0
     B2g        2       2       0       0       0       0
     B3g        0       0       0       0       0       0
     Au         0       0       0       0       0       0
     B1u        4       4       0       0       0       0
     B2u        4       4       0       0       0       0
     B3u        7       7       0       0       0       0
   -------------------------------------------------------
    Total      27      27       6       6       6       0
   -------------------------------------------------------

  ==> Integral Setup <==

  Using in-core PK algorithm.
   Calculation information:
      Number of atoms:                   3
      Number of AO shells:              15
      Number of primitives:             42
      Number of atomic orbitals:        27
      Number of basis functions:        27

      Integral cutoff                 1.00e-12
      Number of threads:                 1

  Performing in-core PK
  Using 143262 doubles for integral storage.
  We computed 4587 shell quartets total.
  Whereas there are 7260 unique shell quartets.
  ==> DiskJK: Disk-Based J/K Matrices <==

    J tasked:                  Yes
    K tasked:                  Yes
    wK tasked:                  No
    Memory (MB):             17166
    Schwarz Cutoff:          1E-12

    OpenMP threads:              1
  Minimum eigenvalue in the overlap matrix is 1.2323126209E-01.
  Using Symmetric Orthogonalization.
  SCF Guess: Superposition of Atomic Densities via on-the-fly atomic UHF.

  ==> Iterations <==

                        Total Energy        Delta E     RMS |[F,P]|

   @RHF iter   0:   -43.70033139970355   -4.37003e+01   8.23183e-04 
   @RHF iter   1:   -43.70048952788144   -1.58128e-04   1.66093e-04 
   @RHF iter   2:   -43.70050114124790   -1.16134e-05   4.07449e-05 DIIS
   @RHF iter   3:   -43.70050196779814   -8.26550e-07   2.22989e-06 DIIS
   @RHF iter   4:   -43.70050196984243   -2.04430e-09   2.31576e-07 DIIS
   @RHF iter   5:   -43.70050196986016   -1.77280e-11   1.02165e-08 DIIS
   @RHF iter   6:   -43.70050196986021   -4.26326e-14   1.18655e-09 DIIS
   @RHF iter   7:   -43.70050196986018    2.13163e-14   1.53343e-10 DIIS
   @RHF iter   8:   -43.70050196986016    2.84217e-14   1.62999e-11 DIIS
   @RHF iter   9:   -43.70050196986018   -2.84217e-14   1.19119e-12 DIIS
   @RHF iter  10:   -43.70050196986017    1.42109e-14   3.65123e-14 DIIS
   @RHF iter  11:   -43.70050196986018   -1.42109e-14   5.95478e-15 DIIS
   @RHF iter  12:   -43.70050196986018    0.00000e+00   1.57546e-15 DIIS

  ==> Post-Iterations <==

    Orbital Energies (a.u.)
    -----------------------

    Doubly Occupied:                                                      

       1Ag    -4.707250     1B3u   -4.707073     2Ag    -4.707073  
       3Ag    -0.303807     2B3u   -0.301375     4Ag    -0.298859  

    Virtual:                                                              

       3B3u    0.065330     1B1u    0.079767     1B2u    0.079767  
       5Ag     0.082336     1B1g    0.082390     1B2g    0.082390  
       2B1u    0.084979     2B2u    0.084979     4B3u    0.100594  
       6Ag     0.414441     5B3u    0.418145     7Ag     0.447116  
       6B3u    0.450476     3B1u    0.458303     3B2u    0.458303  
       2B1g    0.464841     2B2g    0.464841     4B1u    0.471655  
       4B2u    0.471655     8Ag     0.490531     7B3u    0.524596  

    Final Occupation by Irrep:
             Ag   B1g   B2g   B3g    Au   B1u   B2u   B3u 
    DOCC [     4,    0,    0,    0,    0,    0,    0,    2 ]

  Energy converged.

  @RHF Final Energy:   -43.70050196986018

   => Energetics <=

    Nuclear Repulsion Energy =              3.7135242708070169
    One-Electron Energy =                 -64.7771788486305979
    Two-Electron Energy =                  17.3631526079633964
    DFT Exchange-Correlation Energy =       0.0000000000000000
    Empirical Dispersion Energy =           0.0000000000000000
    PCM Polarization Energy =               0.0000000000000000
    EFP Energy =                            0.0000000000000000
    Total Energy =                        -43.7005019698601842


  Saving occupied orbitals to File 180.

*** tstop() called on compute-0-0.local at Tue Aug 15 00:45:18 2017
Module time:
	user time   =       0.22 seconds =       0.00 minutes
	system time =       0.01 seconds =       0.00 minutes
	total time  =          6 seconds =       0.10 minutes
Total time:
	user time   =       0.22 seconds =       0.00 minutes
	system time =       0.01 seconds =       0.00 minutes
	total time  =          6 seconds =       0.10 minutes


Properties will be evaluated at   0.000000,   0.000000,   0.000000 Bohr

Properties computed using the SCF density matrix

  Nuclear Dipole Moment: (a.u.)
     X:     0.0000      Y:     0.0000      Z:     0.0000

  Electronic Dipole Moment: (a.u.)
     X:     0.0000      Y:     0.0000      Z:     0.0000

  Dipole Moment: (a.u.)
     X:     0.0000      Y:     0.0000      Z:     0.0000     Total:     0.0000

  Dipole Moment: (Debye)
     X:     0.0000      Y:     0.0000      Z:     0.0000     Total:     0.0000

 MINTS: Wrapper to libmints.
   by Justin Turney

   Calculation information:
      Number of atoms:                   3
      Number of AO shells:              15
      Number of SO shells:              10
      Number of primitives:             42
      Number of atomic orbitals:        27
      Number of basis functions:        27

      Number of irreps:                  8
      Integral cutoff                 0.00e+00
      Number of functions per irrep: [   8    2    2    0    0    4    4    7 ]

 OEINTS: Overlap, kinetic, potential, dipole, and quadrupole integrals
         stored in file 35.

      Computing two-electron integrals...done
      Computed 11211 non-zero two-electron integrals.
        Stored in file 33.


*** tstart() called on compute-0-0.local
*** at Tue Aug 15 00:45:18 2017


	Wfn Parameters:
	--------------------
	Wavefunction         = CCSD_T
	Number of irreps     = 8
	Number of MOs        = 27
	Number of active MOs = 24
	AO-Basis             = NONE
	Semicanonical        = false
	Reference            = RHF
	Print Level          = 1

	IRREP	# MOs	# FZDC	# DOCC	# SOCC	# VIRT	# FZVR
	-----	-----	------	------	------	------	------
	 Ag	   8	    2	    2	    0	    4	    0
	 B1g	   2	    0	    0	    0	    2	    0
	 B2g	   2	    0	    0	    0	    2	    0
	 B3g	   0	    0	    0	    0	    0	    0
	 Au	   0	    0	    0	    0	    0	    0
	 B1u	   4	    0	    0	    0	    4	    0
	 B2u	   4	    0	    0	    0	    4	    0
	 B3u	   7	    1	    1	    0	    5	    0
	Transforming integrals...
	IWL integrals will be deleted.
	(OO|OO)...
	Presorting SO-basis two-electron integrals.
	Sorting File: SO Ints (nn|nn) nbuckets = 1
	Transforming the one-electron integrals and constructing Fock matrices
	Starting first half-transformation.
	Sorting half-transformed integrals.
	First half integral transformation complete.
	Starting second half-transformation.
	Two-electron integral transformation complete.
	(OO|OV)...
	Starting second half-transformation.
	Two-electron integral transformation complete.
	(OO|VV)...
	Starting second half-transformation.
	Two-electron integral transformation complete.
	(OV|OO)...
	Starting first half-transformation.
	Sorting half-transformed integrals.
	First half integral transformation complete.
	Starting second half-transformation.
	Two-electron integral transformation complete.
	(OV|OV)...
	Starting second half-transformation.
	Two-electron integral transformation complete.
	(OV|VV)...
	Starting second half-transformation.
	Two-electron integral transformation complete.
	(VV|OO)...
	Starting first half-transformation.
	Sorting half-transformed integrals.
	First half integral transformation complete.
	Starting second half-transformation.
	Two-electron integral transformation complete.
	(VV|OV)...
	Starting second half-transformation.
	Two-electron integral transformation complete.
	(VV|VV)...
	Starting second half-transformation.
	Two-electron integral transformation complete.
	Frozen core energy     =    -43.61425014099286

	Size of irrep 0 of <ab|cd> integrals:      0.007 (MW) /      0.052 (MB)
	Size of irrep 1 of <ab|cd> integrals:      0.003 (MW) /      0.025 (MB)
	Size of irrep 2 of <ab|cd> integrals:      0.003 (MW) /      0.025 (MB)
	Size of irrep 3 of <ab|cd> integrals:      0.002 (MW) /      0.013 (MB)
	Size of irrep 4 of <ab|cd> integrals:      0.001 (MW) /      0.008 (MB)
	Size of irrep 5 of <ab|cd> integrals:      0.003 (MW) /      0.022 (MB)
	Size of irrep 6 of <ab|cd> integrals:      0.003 (MW) /      0.022 (MB)
	Size of irrep 7 of <ab|cd> integrals:      0.005 (MW) /      0.041 (MB)
	Total:                                     0.026 (MW) /      0.208 (MB)

	Size of irrep 0 of <ia|bc> integrals:      0.001 (MW) /      0.008 (MB)
	Size of irrep 1 of <ia|bc> integrals:      0.000 (MW) /      0.004 (MB)
	Size of irrep 2 of <ia|bc> integrals:      0.000 (MW) /      0.004 (MB)
	Size of irrep 3 of <ia|bc> integrals:      0.000 (MW) /      0.000 (MB)
	Size of irrep 4 of <ia|bc> integrals:      0.000 (MW) /      0.000 (MB)
	Size of irrep 5 of <ia|bc> integrals:      0.001 (MW) /      0.004 (MB)
	Size of irrep 6 of <ia|bc> integrals:      0.001 (MW) /      0.004 (MB)
	Size of irrep 7 of <ia|bc> integrals:      0.001 (MW) /      0.008 (MB)
	Total:                                     0.004 (MW) /      0.032 (MB)

	Size of irrep 0 of tijab amplitudes:       0.000 (MW) /      0.003 (MB)
	Size of irrep 1 of tijab amplitudes:       0.000 (MW) /      0.000 (MB)
	Size of irrep 2 of tijab amplitudes:       0.000 (MW) /      0.000 (MB)
	Size of irrep 3 of tijab amplitudes:       0.000 (MW) /      0.000 (MB)
	Size of irrep 4 of tijab amplitudes:       0.000 (MW) /      0.000 (MB)
	Size of irrep 5 of tijab amplitudes:       0.000 (MW) /      0.000 (MB)
	Size of irrep 6 of tijab amplitudes:       0.000 (MW) /      0.000 (MB)
	Size of irrep 7 of tijab amplitudes:       0.000 (MW) /      0.002 (MB)
	Total:                                     0.001 (MW) /      0.006 (MB)

	Nuclear Rep. energy          =      3.71352427080702
	SCF energy                   =    -43.70050196986018
	One-electron energy          =     -5.79147090884304
	Two-electron energy          =      1.99169480916874
	Reference energy             =    -43.70050196986014

*** tstop() called on compute-0-0.local at Tue Aug 15 00:45:19 2017
Module time:
	user time   =       0.03 seconds =       0.00 minutes
	system time =       0.04 seconds =       0.00 minutes
	total time  =          1 seconds =       0.02 minutes
Total time:
	user time   =       0.30 seconds =       0.01 minutes
	system time =       0.06 seconds =       0.00 minutes
	total time  =          7 seconds =       0.12 minutes

*** tstart() called on compute-0-0.local
*** at Tue Aug 15 00:45:19 2017

            **************************
            *                        *
            *        CCENERGY        *
            *                        *
            **************************

    Nuclear Rep. energy (wfn)     =    3.713524270807017
    SCF energy          (wfn)     =  -43.700501969860184
    Reference energy    (file100) =  -43.700501969860142

    Input parameters:
    -----------------
    Wave function   =     CCSD_T
    Reference wfn   =     RHF
    Brueckner       =     No
    Memory (Mbytes) =     24000.0
    Maxiter         =     50
    R_Convergence   =     1.0e-07
    E_Convergence   =     1.0e-14
    Restart         =     Yes
    DIIS            =     Yes
    AO Basis        =     NONE
    ABCD            =     NEW
    Cache Level     =     2
    Cache Type      =     LOW
    Print Level     =     1
    Num. of threads =     1
    # Amps to Print =     10
    Print MP2 Amps? =     No
    Analyze T2 Amps =     No
    Print Pair Ener =     No
    Local CC        =     No
    SCS-MP2         =     False
    SCSN-MP2        =     False
    SCS-CCSD        =     False

MP2 correlation energy -0.0700380540656798
                Solving CC Amplitude Equations
                ------------------------------
  Iter             Energy              RMS        T1Diag      D1Diag    New D1Diag    D2Diag
  ----     ---------------------    ---------   ----------  ----------  ----------   --------
     0        -0.070038054065680    0.000e+00    0.000000    0.000000    0.000000    0.162955
     1        -0.103976992667669    1.460e-01    0.004419    0.006367    0.006367    0.246047
     2        -0.138292434775265    7.677e-02    0.011293    0.016464    0.016464    0.334370
     3        -0.137287314223909    5.206e-03    0.011824    0.017339    0.017339    0.333033
     4        -0.138011982433453    1.590e-03    0.011961    0.017553    0.017553    0.334918
     5        -0.137993781430208    1.606e-04    0.011951    0.017542    0.017542    0.334875
     6        -0.137959980122437    8.577e-05    0.011942    0.017531    0.017531    0.334790
     7        -0.137958086299024    7.376e-06    0.011941    0.017529    0.017529    0.334786
     8        -0.137959304966891    4.629e-06    0.011941    0.017529    0.017529    0.334790
     9        -0.137959648648567    1.390e-06    0.011941    0.017529    0.017529    0.334790
    10        -0.137959743052014    4.843e-07    0.011941    0.017529    0.017529    0.334791
    11        -0.137959740184767    2.045e-07    0.011941    0.017529    0.017529    0.334791
    12        -0.137959743245411    8.777e-08    0.011941    0.017529    0.017529    0.334791
    13        -0.137959743926153    4.553e-08    0.011941    0.017529    0.017529    0.334791
    14        -0.137959744774405    2.787e-08    0.011941    0.017529    0.017529    0.334791
    15        -0.137959744433449    1.176e-08    0.011941    0.017529    0.017529    0.334791
    16        -0.137959744279441    4.929e-09    0.011941    0.017529    0.017529    0.334791
    17        -0.137959744109264    2.154e-09    0.011941    0.017529    0.017529    0.334791
    18        -0.137959744029457    6.623e-10    0.011941    0.017529    0.017529    0.334791
    19        -0.137959744006950    1.956e-10    0.011941    0.017529    0.017529    0.334791
    20        -0.137959744000590    8.115e-11    0.011941    0.017529    0.017529    0.334791
    21        -0.137959743998905    4.244e-11    0.011941    0.017529    0.017529    0.334791
    22        -0.137959743998294    2.060e-11    0.011941    0.017529    0.017529    0.334791
    23        -0.137959743997973    1.092e-11    0.011941    0.017529    0.017529    0.334791
    24        -0.137959743997782    5.880e-12    0.011941    0.017529    0.017529    0.334791
    25        -0.137959743997746    3.669e-12    0.011941    0.017529    0.017529    0.334791
    26        -0.137959743997725    2.304e-12    0.011941    0.017529    0.017529    0.334791
    27        -0.137959743997739    1.104e-12    0.011941    0.017529    0.017529    0.334791
    28        -0.137959743997749    4.262e-13    0.011941    0.017529    0.017529    0.334791
    29        -0.137959743997756    1.749e-13    0.011941    0.017529    0.017529    0.334791
    30        -0.137959743997759    8.262e-14    0.011941    0.017529    0.017529    0.334791

    Iterations converged.


    Largest TIA Amplitudes:
              0   1         0.0159428533
              1   2        -0.0129288541
              2  18         0.0116588501
              2  19        -0.0109534087
              1   3        -0.0086825090
              0   2        -0.0056226044
              2  20        -0.0041515366
              0   3         0.0034783966
              1   0        -0.0030469259
              2  16         0.0030443138

    Largest TIjAb Amplitudes:
      2   2   4   4        -0.0861544879
      2   2   6   6        -0.0861544879
      2   2   0   0        -0.0853330086
      0   0  16  16        -0.0670134272
      0   1  16  17         0.0669242907
      1   0  17  16         0.0669242907
      1   1  17  17        -0.0668993611
      1   1   9   9        -0.0662006295
      1   1  13  13        -0.0662006295
      0   1   8   9        -0.0658613189

    SCF energy       (wfn)                    =  -43.700501969860184
    Reference energy (file100)                =  -43.700501969860142

    Opposite-spin MP2 correlation energy      =   -0.069903399023183
    Same-spin MP2 correlation energy          =   -0.000134655042496
    MP2 correlation energy                    =   -0.070038054065680
      * MP2 total energy                      =  -43.770540023925818

    Opposite-spin CCSD correlation energy     =   -0.137820491601879
    Same-spin CCSD correlation energy         =   -0.000139252395880
    CCSD correlation energy                   =   -0.137959743997759
      * CCSD total energy                     =  -43.838461713857903


*** tstop() called on compute-0-0.local at Tue Aug 15 00:45:39 2017
Module time:
	user time   =       0.39 seconds =       0.01 minutes
	system time =       0.51 seconds =       0.01 minutes
	total time  =         20 seconds =       0.33 minutes
Total time:
	user time   =       0.69 seconds =       0.01 minutes
	system time =       0.57 seconds =       0.01 minutes
	total time  =         27 seconds =       0.45 minutes

*** tstart() called on compute-0-0.local
*** at Tue Aug 15 00:45:39 2017

            **************************
            *                        *
            *        CCTRIPLES       *
            *                        *
            **************************


    Wave function   =    CCSD_T
    Reference wfn   =      RHF

    Nuclear Rep. energy (wfn)                =    3.713524270807017
    SCF energy          (wfn)                =  -43.700501969860184
    Reference energy    (file100)            =  -43.700501969860142
    CCSD energy         (file100)            =   -0.137959743997759
    Total CCSD energy   (file100)            =  -43.838461713857903

    Number of ijk index combinations:               10
    Memory available in words        :      3000000000
    ~Words needed per explicit thread:             500
    Number of threads for explicit ijk threading:    1

    (T) energy                                =   -0.000016901530658
      * CCSD(T) total energy                  =  -43.838478615388560


*** tstop() called on compute-0-0.local at Tue Aug 15 00:45:39 2017
Module time:
	user time   =       0.02 seconds =       0.00 minutes
	system time =       0.02 seconds =       0.00 minutes
	total time  =          0 seconds =       0.00 minutes
Total time:
	user time   =       0.71 seconds =       0.01 minutes
	system time =       0.59 seconds =       0.01 minutes
	total time  =         27 seconds =       0.45 minutes

*** Psi4 exiting successfully. Buy a developer a beer!
