    -----------------------------------------------------------------------
          Psi4: An Open-Source Ab Initio Electronic Structure Package
                              Psi4 1.0.0 Driver

                          Git: Rev {master} 6a9a71b dirty

    J. M. Turney, A. C. Simmonett, R. M. Parrish, E. G. Hohenstein,
    F. A. Evangelista, J. T. Fermann, B. J. Mintz, L. A. Burns, J. J. Wilke,
    M. L. Abrams, N. J. Russ, M. L. Leininger, C. L. Janssen, E. T. Seidl,
    W. D. Allen, H. F. Schaefer, R. A. King, E. F. Valeev, C. D. Sherrill,
    and T. D. Crawford, WIREs Comput. Mol. Sci. 2, 556-565 (2012)
    (doi: 10.1002/wcms.93)

                         Additional Contributions by
    A. E. DePrince, U. Bozkaya, A. Yu. Sokolov, D. G. A. Smith, R. Di Remigio,
    R. M. Richard, J. F. Gonthier, H. R. McAlexander, M. Saitow, and
    B. P. Pritchard
    -----------------------------------------------------------------------


    Psi4 started on: Tue Aug 15 00:39:57 2017

    Process ID:   9122
    PSI4DATADIR: /home/yhliu/psi4conda/share/psi4
    Memory level set to 256.000 MB

  ==> Input File <==

--------------------------------------------------------------------------
memory 24 Gb
molecule be3 {
0 1
Be  -4.1    0.0 0.0
Be   0.0    0.0 0.0
Be   4.1    0.0 0.0
units angstrom    
}

set basis 6-31g
set freeze_core true
set PRINT_BASIS True
set PUREAM False
set E_CONVERGENCE 1e-14
energy('ccsd(t)')
--------------------------------------------------------------------------
/home/yhliu/psi4conda/lib/python2.7/site-packages/v2rdm_casscf/v2rdm_casscf.so loaded.

  Memory set to  24.000 GiB by Python script.

*** tstart() called on compute-0-0.local
*** at Tue Aug 15 00:39:58 2017


         ---------------------------------------------------------
                                   SCF
            by Justin Turney, Rob Parrish, and Andy Simmonett
                              RHF Reference
                        1 Threads,  24000 MiB Core
         ---------------------------------------------------------

  ==> Geometry <==

    Molecular point group: d2h
    Full point group: D_inf_h

    Geometry (in Angstrom), charge = 0, multiplicity = 1:

       Center              X                  Y                   Z               Mass       
    ------------   -----------------  -----------------  -----------------  -----------------
          BE         -4.100000000000    -0.000000000000     0.000000000000     9.012182201000
          BE          0.000000000000     0.000000000000     0.000000000000     9.012182201000
          BE          4.100000000000     0.000000000000     0.000000000000     9.012182201000

  Running in d2h symmetry.

  Rotational constants: A = ************  B =      0.05564  C =      0.05564 [cm^-1]
  Rotational constants: A = ************  B =   1667.97495  C =   1667.97495 [MHz]
  Nuclear repulsion =    5.162704474048780

  Charge       = 0
  Multiplicity = 1
  Electrons    = 12
  Nalpha       = 6
  Nbeta        = 6

  ==> Algorithm <==

  SCF Algorithm Type is PK.
  DIIS enabled.
  MOM disabled.
  Fractional occupation disabled.
  Guess Type is SAD.
  Energy threshold   = 1.00e-14
  Density threshold  = 1.00e-08
  Integral threshold = 0.00e+00

  ==> Primary Basis <==

  Basis Set: 6-31G
    Number of shells: 15
    Number of basis function: 27
    Number of Cartesian functions: 27
    Spherical Harmonics?: false
    Max angular momentum: 1

  -AO BASIS SET INFORMATION:
    Name                   = 6-31G
    Total number of shells = 15
    Number of primitives   = 42
    Number of AO           = 27
    Number of SO           = 27
    Maximum AM             = 1
    Spherical Harmonics    = FALSE

  -Contraction Scheme:
    Atom   Type   All Primitives // Shells:
   ------ ------ --------------------------
       1    BE     10s 4p // 3s 2p 
       2    BE     10s 4p // 3s 2p 
       3    BE     10s 4p // 3s 2p 

  ==> AO Basis Functions <==

    [ 6-31G ]
    cartesian
    ****
   BE   1
    S   6 1.00
                      1264.58570000           0.00194480
                       189.93681000           0.01483510
                        43.15908900           0.07209060
                        12.09866300           0.23715420
                         3.80632320           0.46919870
                         1.27289030           0.35652020
    S   3 1.00
                         3.19646310          -0.11264870
                         0.74781330          -0.22950640
                         0.21996630           1.18691670
    P   3 1.00
                         3.19646310           0.05598020
                         0.74781330           0.26155060
                         0.21996630           0.79397230
    S   1 1.00
                         0.08230990           1.00000000
    P   1 1.00
                         0.08230990           1.00000000
    ****
   BE   2
    S   6 1.00
                      1264.58570000           0.00194480
                       189.93681000           0.01483510
                        43.15908900           0.07209060
                        12.09866300           0.23715420
                         3.80632320           0.46919870
                         1.27289030           0.35652020
    S   3 1.00
                         3.19646310          -0.11264870
                         0.74781330          -0.22950640
                         0.21996630           1.18691670
    P   3 1.00
                         3.19646310           0.05598020
                         0.74781330           0.26155060
                         0.21996630           0.79397230
    S   1 1.00
                         0.08230990           1.00000000
    P   1 1.00
                         0.08230990           1.00000000
    ****

  ==> Pre-Iterations <==

   -------------------------------------------------------
    Irrep   Nso     Nmo     Nalpha   Nbeta   Ndocc  Nsocc
   -------------------------------------------------------
     Ag         8       8       0       0       0       0
     B1g        2       2       0       0       0       0
     B2g        2       2       0       0       0       0
     B3g        0       0       0       0       0       0
     Au         0       0       0       0       0       0
     B1u        4       4       0       0       0       0
     B2u        4       4       0       0       0       0
     B3u        7       7       0       0       0       0
   -------------------------------------------------------
    Total      27      27       6       6       6       0
   -------------------------------------------------------

  ==> Integral Setup <==

  Using in-core PK algorithm.
   Calculation information:
      Number of atoms:                   3
      Number of AO shells:              15
      Number of primitives:             42
      Number of atomic orbitals:        27
      Number of basis functions:        27

      Integral cutoff                 1.00e-12
      Number of threads:                 1

  Performing in-core PK
  Using 143262 doubles for integral storage.
  We computed 6097 shell quartets total.
  Whereas there are 7260 unique shell quartets.
  ==> DiskJK: Disk-Based J/K Matrices <==

    J tasked:                  Yes
    K tasked:                  Yes
    wK tasked:                  No
    Memory (MB):             17166
    Schwarz Cutoff:          1E-12

    OpenMP threads:              1
  Minimum eigenvalue in the overlap matrix is 8.9297592820E-02.
  Using Symmetric Orthogonalization.
  SCF Guess: Superposition of Atomic Densities via on-the-fly atomic UHF.

  ==> Iterations <==

                        Total Energy        Delta E     RMS |[F,P]|

   @RHF iter   0:   -43.70580994485444   -4.37058e+01   2.79756e-03 
   @RHF iter   1:   -43.70032006393882    5.48988e-03   5.31559e-04 
   @RHF iter   2:   -43.70045811831440   -1.38054e-04   1.87077e-04 DIIS
   @RHF iter   3:   -43.70047905945012   -2.09411e-05   1.28775e-05 DIIS
   @RHF iter   4:   -43.70047912910917   -6.96591e-08   1.31661e-06 DIIS
   @RHF iter   5:   -43.70047912958944   -4.80270e-10   1.38408e-07 DIIS
   @RHF iter   6:   -43.70047912959517   -5.72697e-12   8.62521e-09 DIIS
   @RHF iter   7:   -43.70047912959518   -1.42109e-14   1.19534e-09 DIIS
   @RHF iter   8:   -43.70047912959521   -2.84217e-14   1.42922e-10 DIIS
   @RHF iter   9:   -43.70047912959517    3.55271e-14   1.06743e-11 DIIS
   @RHF iter  10:   -43.70047912959518   -7.10543e-15   4.25335e-13 DIIS

  ==> Post-Iterations <==

    Orbital Energies (a.u.)
    -----------------------

    Doubly Occupied:                                                      

       1Ag    -4.708564     1B3u   -4.707443     2Ag    -4.707443  
       3Ag    -0.320673     2B3u   -0.302566     4Ag    -0.281358  

    Virtual:                                                              

       3B3u    0.045871     1B1u    0.067333     1B2u    0.067333  
       1B1g    0.082236     1B2g    0.082236     5Ag     0.092000  
       2B1u    0.098745     2B2u    0.098745     4B3u    0.155125  
       6Ag     0.418252     5B3u    0.437064     3B1u    0.447181  
       3B2u    0.447181     7Ag     0.462211     2B1g    0.464475  
       2B2g    0.464475     6B3u    0.489382     4B1u    0.491712  
       4B2u    0.491712     8Ag     0.557169     7B3u    0.620381  

    Final Occupation by Irrep:
             Ag   B1g   B2g   B3g    Au   B1u   B2u   B3u 
    DOCC [     4,    0,    0,    0,    0,    0,    0,    2 ]

  Energy converged.

  @RHF Final Energy:   -43.70047912959518

   => Energetics <=

    Nuclear Repulsion Energy =              5.1627044740487804
    One-Electron Energy =                 -67.6702732746478688
    Two-Electron Energy =                  18.8070896710039008
    DFT Exchange-Correlation Energy =       0.0000000000000000
    Empirical Dispersion Energy =           0.0000000000000000
    PCM Polarization Energy =               0.0000000000000000
    EFP Energy =                            0.0000000000000000
    Total Energy =                        -43.7004791295951875


  Saving occupied orbitals to File 180.

*** tstop() called on compute-0-0.local at Tue Aug 15 00:39:58 2017
Module time:
	user time   =       0.25 seconds =       0.00 minutes
	system time =       0.00 seconds =       0.00 minutes
	total time  =          0 seconds =       0.00 minutes
Total time:
	user time   =       0.25 seconds =       0.00 minutes
	system time =       0.00 seconds =       0.00 minutes
	total time  =          0 seconds =       0.00 minutes


Properties will be evaluated at   0.000000,   0.000000,   0.000000 Bohr

Properties computed using the SCF density matrix

  Nuclear Dipole Moment: (a.u.)
     X:     0.0000      Y:     0.0000      Z:     0.0000

  Electronic Dipole Moment: (a.u.)
     X:     0.0000      Y:     0.0000      Z:     0.0000

  Dipole Moment: (a.u.)
     X:     0.0000      Y:     0.0000      Z:     0.0000     Total:     0.0000

  Dipole Moment: (Debye)
     X:     0.0000      Y:     0.0000      Z:     0.0000     Total:     0.0000

 MINTS: Wrapper to libmints.
   by Justin Turney

   Calculation information:
      Number of atoms:                   3
      Number of AO shells:              15
      Number of SO shells:              10
      Number of primitives:             42
      Number of atomic orbitals:        27
      Number of basis functions:        27

      Number of irreps:                  8
      Integral cutoff                 0.00e+00
      Number of functions per irrep: [   8    2    2    0    0    4    4    7 ]

 OEINTS: Overlap, kinetic, potential, dipole, and quadrupole integrals
         stored in file 35.

      Computing two-electron integrals...done
      Computed 11211 non-zero two-electron integrals.
        Stored in file 33.


*** tstart() called on compute-0-0.local
*** at Tue Aug 15 00:39:58 2017


	Wfn Parameters:
	--------------------
	Wavefunction         = CCSD_T
	Number of irreps     = 8
	Number of MOs        = 27
	Number of active MOs = 24
	AO-Basis             = NONE
	Semicanonical        = false
	Reference            = RHF
	Print Level          = 1

	IRREP	# MOs	# FZDC	# DOCC	# SOCC	# VIRT	# FZVR
	-----	-----	------	------	------	------	------
	 Ag	   8	    2	    2	    0	    4	    0
	 B1g	   2	    0	    0	    0	    2	    0
	 B2g	   2	    0	    0	    0	    2	    0
	 B3g	   0	    0	    0	    0	    0	    0
	 Au	   0	    0	    0	    0	    0	    0
	 B1u	   4	    0	    0	    0	    4	    0
	 B2u	   4	    0	    0	    0	    4	    0
	 B3u	   7	    1	    1	    0	    5	    0
	Transforming integrals...
	IWL integrals will be deleted.
	(OO|OO)...
	Presorting SO-basis two-electron integrals.
	Sorting File: SO Ints (nn|nn) nbuckets = 1
	Transforming the one-electron integrals and constructing Fock matrices
	Starting first half-transformation.
	Sorting half-transformed integrals.
	First half integral transformation complete.
	Starting second half-transformation.
	Two-electron integral transformation complete.
	(OO|OV)...
	Starting second half-transformation.
	Two-electron integral transformation complete.
	(OO|VV)...
	Starting second half-transformation.
	Two-electron integral transformation complete.
	(OV|OO)...
	Starting first half-transformation.
	Sorting half-transformed integrals.
	First half integral transformation complete.
	Starting second half-transformation.
	Two-electron integral transformation complete.
	(OV|OV)...
	Starting second half-transformation.
	Two-electron integral transformation complete.
	(OV|VV)...
	Starting second half-transformation.
	Two-electron integral transformation complete.
	(VV|OO)...
	Starting first half-transformation.
	Sorting half-transformed integrals.
	First half integral transformation complete.
	Starting second half-transformation.
	Two-electron integral transformation complete.
	(VV|OV)...
	Starting second half-transformation.
	Two-electron integral transformation complete.
	(VV|VV)...
	Starting second half-transformation.
	Two-electron integral transformation complete.
	Frozen core energy     =    -44.70114601311853

	Size of irrep 0 of <ab|cd> integrals:      0.007 (MW) /      0.052 (MB)
	Size of irrep 1 of <ab|cd> integrals:      0.003 (MW) /      0.025 (MB)
	Size of irrep 2 of <ab|cd> integrals:      0.003 (MW) /      0.025 (MB)
	Size of irrep 3 of <ab|cd> integrals:      0.002 (MW) /      0.013 (MB)
	Size of irrep 4 of <ab|cd> integrals:      0.001 (MW) /      0.008 (MB)
	Size of irrep 5 of <ab|cd> integrals:      0.003 (MW) /      0.022 (MB)
	Size of irrep 6 of <ab|cd> integrals:      0.003 (MW) /      0.022 (MB)
	Size of irrep 7 of <ab|cd> integrals:      0.005 (MW) /      0.041 (MB)
	Total:                                     0.026 (MW) /      0.208 (MB)

	Size of irrep 0 of <ia|bc> integrals:      0.001 (MW) /      0.008 (MB)
	Size of irrep 1 of <ia|bc> integrals:      0.000 (MW) /      0.004 (MB)
	Size of irrep 2 of <ia|bc> integrals:      0.000 (MW) /      0.004 (MB)
	Size of irrep 3 of <ia|bc> integrals:      0.000 (MW) /      0.000 (MB)
	Size of irrep 4 of <ia|bc> integrals:      0.000 (MW) /      0.000 (MB)
	Size of irrep 5 of <ia|bc> integrals:      0.001 (MW) /      0.004 (MB)
	Size of irrep 6 of <ia|bc> integrals:      0.001 (MW) /      0.004 (MB)
	Size of irrep 7 of <ia|bc> integrals:      0.001 (MW) /      0.008 (MB)
	Total:                                     0.004 (MW) /      0.032 (MB)

	Size of irrep 0 of tijab amplitudes:       0.000 (MW) /      0.003 (MB)
	Size of irrep 1 of tijab amplitudes:       0.000 (MW) /      0.000 (MB)
	Size of irrep 2 of tijab amplitudes:       0.000 (MW) /      0.000 (MB)
	Size of irrep 3 of tijab amplitudes:       0.000 (MW) /      0.000 (MB)
	Size of irrep 4 of tijab amplitudes:       0.000 (MW) /      0.000 (MB)
	Size of irrep 5 of tijab amplitudes:       0.000 (MW) /      0.000 (MB)
	Size of irrep 6 of tijab amplitudes:       0.000 (MW) /      0.000 (MB)
	Size of irrep 7 of tijab amplitudes:       0.000 (MW) /      0.002 (MB)
	Total:                                     0.001 (MW) /      0.006 (MB)

	Nuclear Rep. energy          =      5.16270447404878
	SCF energy                   =    -43.70047912959518
	One-electron energy          =     -6.51488121683011
	Two-electron energy          =      2.35284362630467
	Reference energy             =    -43.70047912959519

*** tstop() called on compute-0-0.local at Tue Aug 15 00:39:58 2017
Module time:
	user time   =       0.03 seconds =       0.00 minutes
	system time =       0.04 seconds =       0.00 minutes
	total time  =          0 seconds =       0.00 minutes
Total time:
	user time   =       0.35 seconds =       0.01 minutes
	system time =       0.05 seconds =       0.00 minutes
	total time  =          0 seconds =       0.00 minutes

*** tstart() called on compute-0-0.local
*** at Tue Aug 15 00:39:58 2017

            **************************
            *                        *
            *        CCENERGY        *
            *                        *
            **************************

    Nuclear Rep. energy (wfn)     =    5.162704474048780
    SCF energy          (wfn)     =  -43.700479129595180
    Reference energy    (file100) =  -43.700479129595195

    Input parameters:
    -----------------
    Wave function   =     CCSD_T
    Reference wfn   =     RHF
    Brueckner       =     No
    Memory (Mbytes) =     24000.0
    Maxiter         =     50
    R_Convergence   =     1.0e-07
    E_Convergence   =     1.0e-14
    Restart         =     Yes
    DIIS            =     Yes
    AO Basis        =     NONE
    ABCD            =     NEW
    Cache Level     =     2
    Cache Type      =     LOW
    Print Level     =     1
    Num. of threads =     1
    # Amps to Print =     10
    Print MP2 Amps? =     No
    Analyze T2 Amps =     No
    Print Pair Ener =     No
    Local CC        =     No
    SCS-MP2         =     False
    SCSN-MP2        =     False
    SCS-CCSD        =     False

MP2 correlation energy -0.0712126069319562
                Solving CC Amplitude Equations
                ------------------------------
  Iter             Energy              RMS        T1Diag      D1Diag    New D1Diag    D2Diag
  ----     ---------------------    ---------   ----------  ----------  ----------   --------
     0        -0.071212606931956    0.000e+00    0.000000    0.000000    0.000000    0.168015
     1        -0.104831435713766    1.439e-01    0.004505    0.006681    0.006681    0.252258
     2        -0.137579122701908    7.527e-02    0.012236    0.018516    0.018516    0.339895
     3        -0.136992411482765    7.036e-03    0.013537    0.020642    0.020642    0.340047
     4        -0.137625241932226    2.147e-03    0.013850    0.021165    0.021165    0.341835
     5        -0.137826552574045    5.108e-04    0.013967    0.021362    0.021362    0.342372
     6        -0.137727816502618    2.838e-04    0.013942    0.021322    0.021322    0.342105
     7        -0.137700275218840    6.620e-05    0.013935    0.021309    0.021309    0.342032
     8        -0.137712988034278    4.450e-05    0.013938    0.021312    0.021312    0.342069
     9        -0.137714583710071    1.548e-05    0.013936    0.021309    0.021309    0.342076
    10        -0.137714948666413    8.118e-06    0.013936    0.021307    0.021307    0.342078
    11        -0.137714763088525    3.721e-06    0.013935    0.021306    0.021306    0.342078
    12        -0.137714774746408    1.201e-06    0.013935    0.021306    0.021306    0.342078
    13        -0.137714794405038    5.893e-07    0.013935    0.021306    0.021306    0.342078
    14        -0.137714798493185    2.054e-07    0.013935    0.021306    0.021306    0.342078
    15        -0.137714793768826    7.344e-08    0.013935    0.021306    0.021306    0.342078
    16        -0.137714793027118    2.643e-08    0.013935    0.021306    0.021306    0.342078
    17        -0.137714792939396    1.468e-08    0.013935    0.021306    0.021306    0.342078
    18        -0.137714792641789    9.328e-09    0.013935    0.021306    0.021306    0.342078
    19        -0.137714792791959    4.244e-09    0.013935    0.021306    0.021306    0.342078
    20        -0.137714792830860    1.685e-09    0.013935    0.021306    0.021306    0.342078
    21        -0.137714792848815    7.436e-10    0.013935    0.021306    0.021306    0.342078
    22        -0.137714792840283    3.299e-10    0.013935    0.021306    0.021306    0.342078
    23        -0.137714792824320    1.849e-10    0.013935    0.021306    0.021306    0.342078
    24        -0.137714792816400    1.004e-10    0.013935    0.021306    0.021306    0.342078
    25        -0.137714792816229    5.100e-11    0.013935    0.021306    0.021306    0.342078
    26        -0.137714792818132    2.238e-11    0.013935    0.021306    0.021306    0.342078
    27        -0.137714792819000    1.161e-11    0.013935    0.021306    0.021306    0.342078
    28        -0.137714792819800    4.430e-12    0.013935    0.021306    0.021306    0.342078
    29        -0.137714792819896    1.984e-12    0.013935    0.021306    0.021306    0.342078
    30        -0.137714792819892    1.132e-12    0.013935    0.021306    0.021306    0.342078
    31        -0.137714792819862    6.532e-13    0.013935    0.021306    0.021306    0.342078

    Iterations converged.


    Largest TIA Amplitudes:
              0   1         0.0165774703
              2  18         0.0140486321
              1   0         0.0135070141
              2  17         0.0115072482
              2  16         0.0101245947
              1   3        -0.0094173101
              1   2        -0.0092269183
              0   0        -0.0085621152
              2  20        -0.0044333505
              1   1         0.0023422256

    Largest TIjAb Amplitudes:
      2   2   4   4        -0.0851975063
      2   2   6   6        -0.0851975063
      2   2   0   0        -0.0824948701
      1   1  16  16        -0.0761323659
      0   0  16  16        -0.0758255657
      0   1  16  17         0.0702075500
      1   0  17  16         0.0702075500
      1   1   9   9        -0.0701685197
      1   1  13  13        -0.0701685197
      0   1   8   9        -0.0676945267

    SCF energy       (wfn)                    =  -43.700479129595180
    Reference energy (file100)                =  -43.700479129595195

    Opposite-spin MP2 correlation energy      =   -0.070224540329193
    Same-spin MP2 correlation energy          =   -0.000988066602763
    MP2 correlation energy                    =   -0.071212606931956
      * MP2 total energy                      =  -43.771691736527153

    Opposite-spin CCSD correlation energy     =   -0.136623775965995
    Same-spin CCSD correlation energy         =   -0.001091016853858
    CCSD correlation energy                   =   -0.137714792819862
      * CCSD total energy                     =  -43.838193922415059


*** tstop() called on compute-0-0.local at Tue Aug 15 00:40:03 2017
Module time:
	user time   =       0.25 seconds =       0.00 minutes
	system time =       0.31 seconds =       0.01 minutes
	total time  =          5 seconds =       0.08 minutes
Total time:
	user time   =       0.60 seconds =       0.01 minutes
	system time =       0.36 seconds =       0.01 minutes
	total time  =          5 seconds =       0.08 minutes

*** tstart() called on compute-0-0.local
*** at Tue Aug 15 00:40:03 2017

            **************************
            *                        *
            *        CCTRIPLES       *
            *                        *
            **************************


    Wave function   =    CCSD_T
    Reference wfn   =      RHF

    Nuclear Rep. energy (wfn)                =    5.162704474048780
    SCF energy          (wfn)                =  -43.700479129595180
    Reference energy    (file100)            =  -43.700479129595195
    CCSD energy         (file100)            =   -0.137714792819862
    Total CCSD energy   (file100)            =  -43.838193922415059

    Number of ijk index combinations:               10
    Memory available in words        :      3000000000
    ~Words needed per explicit thread:             500
    Number of threads for explicit ijk threading:    1

    (T) energy                                =   -0.000254805433764
      * CCSD(T) total energy                  =  -43.838448727848821


*** tstop() called on compute-0-0.local at Tue Aug 15 00:40:03 2017
Module time:
	user time   =       0.01 seconds =       0.00 minutes
	system time =       0.01 seconds =       0.00 minutes
	total time  =          0 seconds =       0.00 minutes
Total time:
	user time   =       0.61 seconds =       0.01 minutes
	system time =       0.37 seconds =       0.01 minutes
	total time  =          5 seconds =       0.08 minutes

*** Psi4 exiting successfully. Buy a developer a beer!
