    -----------------------------------------------------------------------
          Psi4: An Open-Source Ab Initio Electronic Structure Package
                              Psi4 1.0.0 Driver

                          Git: Rev {master} 6a9a71b dirty

    J. M. Turney, A. C. Simmonett, R. M. Parrish, E. G. Hohenstein,
    F. A. Evangelista, J. T. Fermann, B. J. Mintz, L. A. Burns, J. J. Wilke,
    M. L. Abrams, N. J. Russ, M. L. Leininger, C. L. Janssen, E. T. Seidl,
    W. D. Allen, H. F. Schaefer, R. A. King, E. F. Valeev, C. D. Sherrill,
    and T. D. Crawford, WIREs Comput. Mol. Sci. 2, 556-565 (2012)
    (doi: 10.1002/wcms.93)

                         Additional Contributions by
    A. E. DePrince, U. Bozkaya, A. Yu. Sokolov, D. G. A. Smith, R. Di Remigio,
    R. M. Richard, J. F. Gonthier, H. R. McAlexander, M. Saitow, and
    B. P. Pritchard
    -----------------------------------------------------------------------


    Psi4 started on: Tue Aug 15 00:50:38 2017

    Process ID:   9583
    PSI4DATADIR: /home/yhliu/psi4conda/share/psi4
    Memory level set to 256.000 MB

  ==> Input File <==

--------------------------------------------------------------------------
memory 24 Gb
molecule be3 {
0 1
Be  -6.7    0.0 0.0
Be   0.0    0.0 0.0
Be   6.7    0.0 0.0
units angstrom    
}

set basis 6-31g
set freeze_core true
set PRINT_BASIS True
set PUREAM False
set E_CONVERGENCE 1e-14
energy('ccsd(t)')
--------------------------------------------------------------------------
/home/yhliu/psi4conda/lib/python2.7/site-packages/v2rdm_casscf/v2rdm_casscf.so loaded.

  Memory set to  24.000 GiB by Python script.

*** tstart() called on compute-0-0.local
*** at Tue Aug 15 00:50:39 2017


         ---------------------------------------------------------
                                   SCF
            by Justin Turney, Rob Parrish, and Andy Simmonett
                              RHF Reference
                        1 Threads,  24000 MiB Core
         ---------------------------------------------------------

  ==> Geometry <==

    Molecular point group: d2h
    Full point group: D_inf_h

    Geometry (in Angstrom), charge = 0, multiplicity = 1:

       Center              X                  Y                   Z               Mass       
    ------------   -----------------  -----------------  -----------------  -----------------
          BE         -6.700000000000    -0.000000000000     0.000000000000     9.012182201000
          BE          0.000000000000     0.000000000000     0.000000000000     9.012182201000
          BE          6.700000000000     0.000000000000     0.000000000000     9.012182201000

  Running in d2h symmetry.

  Rotational constants: A = ************  B =      0.02083  C =      0.02083 [cm^-1]
  Rotational constants: A = ************  B =    624.60813  C =    624.60813 [MHz]
  Nuclear repulsion =    3.159266916955223

  Charge       = 0
  Multiplicity = 1
  Electrons    = 12
  Nalpha       = 6
  Nbeta        = 6

  ==> Algorithm <==

  SCF Algorithm Type is PK.
  DIIS enabled.
  MOM disabled.
  Fractional occupation disabled.
  Guess Type is SAD.
  Energy threshold   = 1.00e-14
  Density threshold  = 1.00e-08
  Integral threshold = 0.00e+00

  ==> Primary Basis <==

  Basis Set: 6-31G
    Number of shells: 15
    Number of basis function: 27
    Number of Cartesian functions: 27
    Spherical Harmonics?: false
    Max angular momentum: 1

  -AO BASIS SET INFORMATION:
    Name                   = 6-31G
    Total number of shells = 15
    Number of primitives   = 42
    Number of AO           = 27
    Number of SO           = 27
    Maximum AM             = 1
    Spherical Harmonics    = FALSE

  -Contraction Scheme:
    Atom   Type   All Primitives // Shells:
   ------ ------ --------------------------
       1    BE     10s 4p // 3s 2p 
       2    BE     10s 4p // 3s 2p 
       3    BE     10s 4p // 3s 2p 

  ==> AO Basis Functions <==

    [ 6-31G ]
    cartesian
    ****
   BE   1
    S   6 1.00
                      1264.58570000           0.00194480
                       189.93681000           0.01483510
                        43.15908900           0.07209060
                        12.09866300           0.23715420
                         3.80632320           0.46919870
                         1.27289030           0.35652020
    S   3 1.00
                         3.19646310          -0.11264870
                         0.74781330          -0.22950640
                         0.21996630           1.18691670
    P   3 1.00
                         3.19646310           0.05598020
                         0.74781330           0.26155060
                         0.21996630           0.79397230
    S   1 1.00
                         0.08230990           1.00000000
    P   1 1.00
                         0.08230990           1.00000000
    ****
   BE   2
    S   6 1.00
                      1264.58570000           0.00194480
                       189.93681000           0.01483510
                        43.15908900           0.07209060
                        12.09866300           0.23715420
                         3.80632320           0.46919870
                         1.27289030           0.35652020
    S   3 1.00
                         3.19646310          -0.11264870
                         0.74781330          -0.22950640
                         0.21996630           1.18691670
    P   3 1.00
                         3.19646310           0.05598020
                         0.74781330           0.26155060
                         0.21996630           0.79397230
    S   1 1.00
                         0.08230990           1.00000000
    P   1 1.00
                         0.08230990           1.00000000
    ****

  ==> Pre-Iterations <==

   -------------------------------------------------------
    Irrep   Nso     Nmo     Nalpha   Nbeta   Ndocc  Nsocc
   -------------------------------------------------------
     Ag         8       8       0       0       0       0
     B1g        2       2       0       0       0       0
     B2g        2       2       0       0       0       0
     B3g        0       0       0       0       0       0
     Au         0       0       0       0       0       0
     B1u        4       4       0       0       0       0
     B2u        4       4       0       0       0       0
     B3u        7       7       0       0       0       0
   -------------------------------------------------------
    Total      27      27       6       6       6       0
   -------------------------------------------------------

  ==> Integral Setup <==

  Using in-core PK algorithm.
   Calculation information:
      Number of atoms:                   3
      Number of AO shells:              15
      Number of primitives:             42
      Number of atomic orbitals:        27
      Number of basis functions:        27

      Integral cutoff                 1.00e-12
      Number of threads:                 1

  Performing in-core PK
  Using 143262 doubles for integral storage.
  We computed 3692 shell quartets total.
  Whereas there are 7260 unique shell quartets.
  ==> DiskJK: Disk-Based J/K Matrices <==

    J tasked:                  Yes
    K tasked:                  Yes
    wK tasked:                  No
    Memory (MB):             17166
    Schwarz Cutoff:          1E-12

    OpenMP threads:              1
  Minimum eigenvalue in the overlap matrix is 1.2764652747E-01.
  Using Symmetric Orthogonalization.
  SCF Guess: Superposition of Atomic Densities via on-the-fly atomic UHF.

  ==> Iterations <==

                        Total Energy        Delta E     RMS |[F,P]|

   @RHF iter   0:   -43.70029301318954   -4.37003e+01   2.82875e-04 
   @RHF iter   1:   -43.70031618399002   -2.31708e-05   4.70036e-05 
   @RHF iter   2:   -43.70031705046224   -8.66472e-07   9.30554e-06 DIIS
   @RHF iter   3:   -43.70031709039385   -3.99316e-08   4.22925e-07 DIIS
   @RHF iter   4:   -43.70031709046853   -7.46851e-11   3.34017e-08 DIIS
   @RHF iter   5:   -43.70031709046893   -3.97904e-13   1.87515e-09 DIIS
   @RHF iter   6:   -43.70031709046894   -7.10543e-15   1.54330e-10 DIIS

  ==> Post-Iterations <==

    Orbital Energies (a.u.)
    -----------------------

    Doubly Occupied:                                                      

       1Ag    -4.706930     1B3u   -4.706911     2Ag    -4.706911  
       3Ag    -0.301813     2B3u   -0.301304     4Ag    -0.300789  

    Virtual:                                                              

       3B3u    0.076503     1B1u    0.081849     1B2u    0.081849  
       5Ag     0.082400     1B1g    0.082430     1B2g    0.082430  
       2B1u    0.083006     2B2u    0.083006     4B3u    0.088282  
       6Ag     0.433493     5B3u    0.436188     7Ag     0.443216  
       6B3u    0.452580     3B1u    0.463338     3B2u    0.463338  
       2B1g    0.464921     2B2g    0.464921     4B1u    0.466512  
       4B2u    0.466512     8Ag     0.468214     7B3u    0.483025  

    Final Occupation by Irrep:
             Ag   B1g   B2g   B3g    Au   B1u   B2u   B3u 
    DOCC [     4,    0,    0,    0,    0,    0,    0,    2 ]

  Energy converged.

  @RHF Final Energy:   -43.70031709046894

   => Energetics <=

    Nuclear Repulsion Energy =              3.1592669169552234
    One-Electron Energy =                 -63.6698502849863672
    Two-Electron Energy =                  16.8102662775622100
    DFT Exchange-Correlation Energy =       0.0000000000000000
    Empirical Dispersion Energy =           0.0000000000000000
    PCM Polarization Energy =               0.0000000000000000
    EFP Energy =                            0.0000000000000000
    Total Energy =                        -43.7003170904689284


  Saving occupied orbitals to File 180.

*** tstop() called on compute-0-0.local at Tue Aug 15 00:50:39 2017
Module time:
	user time   =       0.20 seconds =       0.00 minutes
	system time =       0.01 seconds =       0.00 minutes
	total time  =          0 seconds =       0.00 minutes
Total time:
	user time   =       0.20 seconds =       0.00 minutes
	system time =       0.01 seconds =       0.00 minutes
	total time  =          0 seconds =       0.00 minutes


Properties will be evaluated at   0.000000,   0.000000,   0.000000 Bohr

Properties computed using the SCF density matrix

  Nuclear Dipole Moment: (a.u.)
     X:     0.0000      Y:     0.0000      Z:     0.0000

  Electronic Dipole Moment: (a.u.)
     X:     0.0000      Y:     0.0000      Z:     0.0000

  Dipole Moment: (a.u.)
     X:     0.0000      Y:     0.0000      Z:     0.0000     Total:     0.0000

  Dipole Moment: (Debye)
     X:     0.0000      Y:     0.0000      Z:     0.0000     Total:     0.0000

 MINTS: Wrapper to libmints.
   by Justin Turney

   Calculation information:
      Number of atoms:                   3
      Number of AO shells:              15
      Number of SO shells:              10
      Number of primitives:             42
      Number of atomic orbitals:        27
      Number of basis functions:        27

      Number of irreps:                  8
      Integral cutoff                 0.00e+00
      Number of functions per irrep: [   8    2    2    0    0    4    4    7 ]

 OEINTS: Overlap, kinetic, potential, dipole, and quadrupole integrals
         stored in file 35.

      Computing two-electron integrals...done
      Computed 11211 non-zero two-electron integrals.
        Stored in file 33.


*** tstart() called on compute-0-0.local
*** at Tue Aug 15 00:50:39 2017


	Wfn Parameters:
	--------------------
	Wavefunction         = CCSD_T
	Number of irreps     = 8
	Number of MOs        = 27
	Number of active MOs = 24
	AO-Basis             = NONE
	Semicanonical        = false
	Reference            = RHF
	Print Level          = 1

	IRREP	# MOs	# FZDC	# DOCC	# SOCC	# VIRT	# FZVR
	-----	-----	------	------	------	------	------
	 Ag	   8	    2	    2	    0	    4	    0
	 B1g	   2	    0	    0	    0	    2	    0
	 B2g	   2	    0	    0	    0	    2	    0
	 B3g	   0	    0	    0	    0	    0	    0
	 Au	   0	    0	    0	    0	    0	    0
	 B1u	   4	    0	    0	    0	    4	    0
	 B2u	   4	    0	    0	    0	    4	    0
	 B3u	   7	    1	    1	    0	    5	    0
	Transforming integrals...
	IWL integrals will be deleted.
	(OO|OO)...
	Presorting SO-basis two-electron integrals.
	Sorting File: SO Ints (nn|nn) nbuckets = 1
	Transforming the one-electron integrals and constructing Fock matrices
	Starting first half-transformation.
	Sorting half-transformed integrals.
	First half integral transformation complete.
	Starting second half-transformation.
	Two-electron integral transformation complete.
	(OO|OV)...
	Starting second half-transformation.
	Two-electron integral transformation complete.
	(OO|VV)...
	Starting second half-transformation.
	Two-electron integral transformation complete.
	(OV|OO)...
	Starting first half-transformation.
	Sorting half-transformed integrals.
	First half integral transformation complete.
	Starting second half-transformation.
	Two-electron integral transformation complete.
	(OV|OV)...
	Starting second half-transformation.
	Two-electron integral transformation complete.
	(OV|VV)...
	Starting second half-transformation.
	Two-electron integral transformation complete.
	(VV|OO)...
	Starting first half-transformation.
	Sorting half-transformed integrals.
	First half integral transformation complete.
	Starting second half-transformation.
	Two-electron integral transformation complete.
	(VV|OV)...
	Starting second half-transformation.
	Two-electron integral transformation complete.
	(VV|VV)...
	Starting second half-transformation.
	Two-electron integral transformation complete.
	Frozen core energy     =    -43.19855644616024

	Size of irrep 0 of <ab|cd> integrals:      0.007 (MW) /      0.052 (MB)
	Size of irrep 1 of <ab|cd> integrals:      0.003 (MW) /      0.025 (MB)
	Size of irrep 2 of <ab|cd> integrals:      0.003 (MW) /      0.025 (MB)
	Size of irrep 3 of <ab|cd> integrals:      0.002 (MW) /      0.013 (MB)
	Size of irrep 4 of <ab|cd> integrals:      0.001 (MW) /      0.008 (MB)
	Size of irrep 5 of <ab|cd> integrals:      0.003 (MW) /      0.022 (MB)
	Size of irrep 6 of <ab|cd> integrals:      0.003 (MW) /      0.022 (MB)
	Size of irrep 7 of <ab|cd> integrals:      0.005 (MW) /      0.041 (MB)
	Total:                                     0.026 (MW) /      0.208 (MB)

	Size of irrep 0 of <ia|bc> integrals:      0.001 (MW) /      0.008 (MB)
	Size of irrep 1 of <ia|bc> integrals:      0.000 (MW) /      0.004 (MB)
	Size of irrep 2 of <ia|bc> integrals:      0.000 (MW) /      0.004 (MB)
	Size of irrep 3 of <ia|bc> integrals:      0.000 (MW) /      0.000 (MB)
	Size of irrep 4 of <ia|bc> integrals:      0.000 (MW) /      0.000 (MB)
	Size of irrep 5 of <ia|bc> integrals:      0.001 (MW) /      0.004 (MB)
	Size of irrep 6 of <ia|bc> integrals:      0.001 (MW) /      0.004 (MB)
	Size of irrep 7 of <ia|bc> integrals:      0.001 (MW) /      0.008 (MB)
	Total:                                     0.004 (MW) /      0.032 (MB)

	Size of irrep 0 of tijab amplitudes:       0.000 (MW) /      0.003 (MB)
	Size of irrep 1 of tijab amplitudes:       0.000 (MW) /      0.000 (MB)
	Size of irrep 2 of tijab amplitudes:       0.000 (MW) /      0.000 (MB)
	Size of irrep 3 of tijab amplitudes:       0.000 (MW) /      0.000 (MB)
	Size of irrep 4 of tijab amplitudes:       0.000 (MW) /      0.000 (MB)
	Size of irrep 5 of tijab amplitudes:       0.000 (MW) /      0.000 (MB)
	Size of irrep 6 of tijab amplitudes:       0.000 (MW) /      0.000 (MB)
	Size of irrep 7 of tijab amplitudes:       0.000 (MW) /      0.002 (MB)
	Total:                                     0.001 (MW) /      0.006 (MB)

	Nuclear Rep. energy          =      3.15926691695522
	SCF energy                   =    -43.70031709046894
	One-electron energy          =     -5.51424161475650
	Two-electron energy          =      1.85321405348984
	Reference energy             =    -43.70031709047169

*** tstop() called on compute-0-0.local at Tue Aug 15 00:50:39 2017
Module time:
	user time   =       0.03 seconds =       0.00 minutes
	system time =       0.03 seconds =       0.00 minutes
	total time  =          0 seconds =       0.00 minutes
Total time:
	user time   =       0.32 seconds =       0.01 minutes
	system time =       0.04 seconds =       0.00 minutes
	total time  =          0 seconds =       0.00 minutes

*** tstart() called on compute-0-0.local
*** at Tue Aug 15 00:50:39 2017

            **************************
            *                        *
            *        CCENERGY        *
            *                        *
            **************************

    Nuclear Rep. energy (wfn)     =    3.159266916955223
    SCF energy          (wfn)     =  -43.700317090468936
    Reference energy    (file100) =  -43.700317090471685

    Input parameters:
    -----------------
    Wave function   =     CCSD_T
    Reference wfn   =     RHF
    Brueckner       =     No
    Memory (Mbytes) =     24000.0
    Maxiter         =     50
    R_Convergence   =     1.0e-07
    E_Convergence   =     1.0e-14
    Restart         =     Yes
    DIIS            =     Yes
    AO Basis        =     NONE
    ABCD            =     NEW
    Cache Level     =     2
    Cache Type      =     LOW
    Print Level     =     1
    Num. of threads =     1
    # Amps to Print =     10
    Print MP2 Amps? =     No
    Analyze T2 Amps =     No
    Print Pair Ener =     No
    Local CC        =     No
    SCS-MP2         =     False
    SCSN-MP2        =     False
    SCS-CCSD        =     False

MP2 correlation energy -0.0698963994782809
                Solving CC Amplitude Equations
                ------------------------------
  Iter             Energy              RMS        T1Diag      D1Diag    New D1Diag    D2Diag
  ----     ---------------------    ---------   ----------  ----------  ----------   --------
     0        -0.069896399478281    0.000e+00    0.000000    0.000000    0.000000    0.162233
     1        -0.103857896369217    1.462e-01    0.004410    0.006276    0.006276    0.245135
     2        -0.138346923546594    7.695e-02    0.011220    0.016011    0.016011    0.333573
     3        -0.137298040783374    5.028e-03    0.011689    0.016701    0.016701    0.332129
     4        -0.137962986233145    1.550e-03    0.011805    0.016868    0.016868    0.333852
     5        -0.137966102431984    7.247e-05    0.011793    0.016853    0.016853    0.333868
     6        -0.137962859653912    1.151e-05    0.011792    0.016851    0.016851    0.333861
     7        -0.137961956271976    3.806e-06    0.011791    0.016850    0.016850    0.333859
     8        -0.137962844210382    2.565e-06    0.011791    0.016850    0.016850    0.333861
     9        -0.137962943619490    4.920e-07    0.011791    0.016850    0.016850    0.333862
    10        -0.137962990265831    2.092e-07    0.011791    0.016850    0.016850    0.333862
    11        -0.137962991268228    4.291e-08    0.011791    0.016850    0.016850    0.333862
    12        -0.137962991583543    1.644e-08    0.011791    0.016850    0.016850    0.333862
    13        -0.137962991727592    5.756e-09    0.011791    0.016850    0.016850    0.333862
    14        -0.137962991748677    1.612e-09    0.011791    0.016850    0.016850    0.333862
    15        -0.137962991757717    1.000e-09    0.011791    0.016850    0.016850    0.333862
    16        -0.137962991762296    5.616e-10    0.011791    0.016850    0.016850    0.333862
    17        -0.137962991755778    2.989e-10    0.011791    0.016850    0.016850    0.333862
    18        -0.137962991751531    1.353e-10    0.011791    0.016850    0.016850    0.333862
    19        -0.137962991750296    4.516e-11    0.011791    0.016850    0.016850    0.333862
    20        -0.137962991750116    1.695e-11    0.011791    0.016850    0.016850    0.333862
    21        -0.137962991750208    7.926e-12    0.011791    0.016850    0.016850    0.333862
    22        -0.137962991750286    4.107e-12    0.011791    0.016850    0.016850    0.333862
    23        -0.137962991750320    1.718e-12    0.011791    0.016850    0.016850    0.333862
    24        -0.137962991750316    6.228e-13    0.011791    0.016850    0.016850    0.333862
    25        -0.137962991750305    2.806e-13    0.011791    0.016850    0.016850    0.333862

    Iterations converged.


    Largest TIA Amplitudes:
              0   1        -0.0163480040
              1   2        -0.0158094471
              2  18        -0.0151799002
              2  19        -0.0064194893
              1   3        -0.0041376628
              0   3         0.0028801568
              0   2        -0.0027822856
              2  20        -0.0024252381
              1   1         0.0019176918
              1   0        -0.0008220891

    Largest TIjAb Amplitudes:
      2   2   4   4        -0.0861767727
      2   2   6   6        -0.0861767727
      2   2   0   0        -0.0857906459
      1   1  17  17        -0.0663150551
      0   1  16  17         0.0660805506
      1   0  17  16         0.0660805506
      0   0  16  16        -0.0658576532
      0   0   8   8        -0.0654425910
      0   0  12  12        -0.0654425910
      0   1   8   9        -0.0654000026

    SCF energy       (wfn)                    =  -43.700317090468936
    Reference energy (file100)                =  -43.700317090471685

    Opposite-spin MP2 correlation energy      =   -0.069847430906634
    Same-spin MP2 correlation energy          =   -0.000048968571647
    MP2 correlation energy                    =   -0.069896399478281
      * MP2 total energy                      =  -43.770213489949967

    Opposite-spin CCSD correlation energy     =   -0.137912448766394
    Same-spin CCSD correlation energy         =   -0.000050542989545
    CCSD correlation energy                   =   -0.137962991750305
      * CCSD total energy                     =  -43.838280082221992


*** tstop() called on compute-0-0.local at Tue Aug 15 00:50:43 2017
Module time:
	user time   =       0.28 seconds =       0.00 minutes
	system time =       0.30 seconds =       0.01 minutes
	total time  =          4 seconds =       0.07 minutes
Total time:
	user time   =       0.60 seconds =       0.01 minutes
	system time =       0.34 seconds =       0.01 minutes
	total time  =          4 seconds =       0.07 minutes

*** tstart() called on compute-0-0.local
*** at Tue Aug 15 00:50:43 2017

            **************************
            *                        *
            *        CCTRIPLES       *
            *                        *
            **************************


    Wave function   =    CCSD_T
    Reference wfn   =      RHF

    Nuclear Rep. energy (wfn)                =    3.159266916955223
    SCF energy          (wfn)                =  -43.700317090468936
    Reference energy    (file100)            =  -43.700317090471685
    CCSD energy         (file100)            =   -0.137962991750305
    Total CCSD energy   (file100)            =  -43.838280082221992

    Number of ijk index combinations:               10
    Memory available in words        :      3000000000
    ~Words needed per explicit thread:             500
    Number of threads for explicit ijk threading:    1

    (T) energy                                =   -0.000004624390699
      * CCSD(T) total energy                  =  -43.838284706612690


*** tstop() called on compute-0-0.local at Tue Aug 15 00:50:44 2017
Module time:
	user time   =       0.01 seconds =       0.00 minutes
	system time =       0.01 seconds =       0.00 minutes
	total time  =          1 seconds =       0.02 minutes
Total time:
	user time   =       0.61 seconds =       0.01 minutes
	system time =       0.35 seconds =       0.01 minutes
	total time  =          5 seconds =       0.08 minutes

*** Psi4 exiting successfully. Buy a developer a beer!
