    -----------------------------------------------------------------------
          Psi4: An Open-Source Ab Initio Electronic Structure Package
                              Psi4 1.0.0 Driver

                          Git: Rev {master} 6a9a71b dirty

    J. M. Turney, A. C. Simmonett, R. M. Parrish, E. G. Hohenstein,
    F. A. Evangelista, J. T. Fermann, B. J. Mintz, L. A. Burns, J. J. Wilke,
    M. L. Abrams, N. J. Russ, M. L. Leininger, C. L. Janssen, E. T. Seidl,
    W. D. Allen, H. F. Schaefer, R. A. King, E. F. Valeev, C. D. Sherrill,
    and T. D. Crawford, WIREs Comput. Mol. Sci. 2, 556-565 (2012)
    (doi: 10.1002/wcms.93)

                         Additional Contributions by
    A. E. DePrince, U. Bozkaya, A. Yu. Sokolov, D. G. A. Smith, R. Di Remigio,
    R. M. Richard, J. F. Gonthier, H. R. McAlexander, M. Saitow, and
    B. P. Pritchard
    -----------------------------------------------------------------------


    Psi4 started on: Tue Aug 15 00:50:32 2017

    Process ID:   9578
    PSI4DATADIR: /home/yhliu/psi4conda/share/psi4
    Memory level set to 256.000 MB

  ==> Input File <==

--------------------------------------------------------------------------
memory 24 Gb
molecule be3 {
0 1
Be  -6.6    0.0 0.0
Be   0.0    0.0 0.0
Be   6.6    0.0 0.0
units angstrom    
}

set basis 6-31g
set freeze_core true
set PRINT_BASIS True
set PUREAM False
set E_CONVERGENCE 1e-14
energy('ccsd(t)')
--------------------------------------------------------------------------
/home/yhliu/psi4conda/lib/python2.7/site-packages/v2rdm_casscf/v2rdm_casscf.so loaded.

  Memory set to  24.000 GiB by Python script.

*** tstart() called on compute-0-0.local
*** at Tue Aug 15 00:50:32 2017


         ---------------------------------------------------------
                                   SCF
            by Justin Turney, Rob Parrish, and Andy Simmonett
                              RHF Reference
                        1 Threads,  24000 MiB Core
         ---------------------------------------------------------

  ==> Geometry <==

    Molecular point group: d2h
    Full point group: D_inf_h

    Geometry (in Angstrom), charge = 0, multiplicity = 1:

       Center              X                  Y                   Z               Mass       
    ------------   -----------------  -----------------  -----------------  -----------------
          BE         -6.600000000000    -0.000000000000     0.000000000000     9.012182201000
          BE          0.000000000000     0.000000000000     0.000000000000     9.012182201000
          BE          6.600000000000     0.000000000000     0.000000000000     9.012182201000

  Running in d2h symmetry.

  Rotational constants: A = ************  B =      0.02147  C =      0.02147 [cm^-1]
  Rotational constants: A = ************  B =    643.67904  C =    643.67904 [MHz]
  Nuclear repulsion =    3.207134597515154

  Charge       = 0
  Multiplicity = 1
  Electrons    = 12
  Nalpha       = 6
  Nbeta        = 6

  ==> Algorithm <==

  SCF Algorithm Type is PK.
  DIIS enabled.
  MOM disabled.
  Fractional occupation disabled.
  Guess Type is SAD.
  Energy threshold   = 1.00e-14
  Density threshold  = 1.00e-08
  Integral threshold = 0.00e+00

  ==> Primary Basis <==

  Basis Set: 6-31G
    Number of shells: 15
    Number of basis function: 27
    Number of Cartesian functions: 27
    Spherical Harmonics?: false
    Max angular momentum: 1

  -AO BASIS SET INFORMATION:
    Name                   = 6-31G
    Total number of shells = 15
    Number of primitives   = 42
    Number of AO           = 27
    Number of SO           = 27
    Maximum AM             = 1
    Spherical Harmonics    = FALSE

  -Contraction Scheme:
    Atom   Type   All Primitives // Shells:
   ------ ------ --------------------------
       1    BE     10s 4p // 3s 2p 
       2    BE     10s 4p // 3s 2p 
       3    BE     10s 4p // 3s 2p 

  ==> AO Basis Functions <==

    [ 6-31G ]
    cartesian
    ****
   BE   1
    S   6 1.00
                      1264.58570000           0.00194480
                       189.93681000           0.01483510
                        43.15908900           0.07209060
                        12.09866300           0.23715420
                         3.80632320           0.46919870
                         1.27289030           0.35652020
    S   3 1.00
                         3.19646310          -0.11264870
                         0.74781330          -0.22950640
                         0.21996630           1.18691670
    P   3 1.00
                         3.19646310           0.05598020
                         0.74781330           0.26155060
                         0.21996630           0.79397230
    S   1 1.00
                         0.08230990           1.00000000
    P   1 1.00
                         0.08230990           1.00000000
    ****
   BE   2
    S   6 1.00
                      1264.58570000           0.00194480
                       189.93681000           0.01483510
                        43.15908900           0.07209060
                        12.09866300           0.23715420
                         3.80632320           0.46919870
                         1.27289030           0.35652020
    S   3 1.00
                         3.19646310          -0.11264870
                         0.74781330          -0.22950640
                         0.21996630           1.18691670
    P   3 1.00
                         3.19646310           0.05598020
                         0.74781330           0.26155060
                         0.21996630           0.79397230
    S   1 1.00
                         0.08230990           1.00000000
    P   1 1.00
                         0.08230990           1.00000000
    ****

  ==> Pre-Iterations <==

   -------------------------------------------------------
    Irrep   Nso     Nmo     Nalpha   Nbeta   Ndocc  Nsocc
   -------------------------------------------------------
     Ag         8       8       0       0       0       0
     B1g        2       2       0       0       0       0
     B2g        2       2       0       0       0       0
     B3g        0       0       0       0       0       0
     Au         0       0       0       0       0       0
     B1u        4       4       0       0       0       0
     B2u        4       4       0       0       0       0
     B3u        7       7       0       0       0       0
   -------------------------------------------------------
    Total      27      27       6       6       6       0
   -------------------------------------------------------

  ==> Integral Setup <==

  Using in-core PK algorithm.
   Calculation information:
      Number of atoms:                   3
      Number of AO shells:              15
      Number of primitives:             42
      Number of atomic orbitals:        27
      Number of basis functions:        27

      Integral cutoff                 1.00e-12
      Number of threads:                 1

  Performing in-core PK
  Using 143262 doubles for integral storage.
  We computed 3737 shell quartets total.
  Whereas there are 7260 unique shell quartets.
  ==> DiskJK: Disk-Based J/K Matrices <==

    J tasked:                  Yes
    K tasked:                  Yes
    wK tasked:                  No
    Memory (MB):             17166
    Schwarz Cutoff:          1E-12

    OpenMP threads:              1
  Minimum eigenvalue in the overlap matrix is 1.2745619888E-01.
  Using Symmetric Orthogonalization.
  SCF Guess: Superposition of Atomic Densities via on-the-fly atomic UHF.

  ==> Iterations <==

                        Total Energy        Delta E     RMS |[F,P]|

   @RHF iter   0:   -43.70029346507945   -4.37003e+01   3.21103e-04 
   @RHF iter   1:   -43.70032315093184   -2.96859e-05   5.43696e-05 
   @RHF iter   2:   -43.70032431641290   -1.16548e-06   1.09749e-05 DIIS
   @RHF iter   3:   -43.70032437227866   -5.58658e-08   5.08840e-07 DIIS
   @RHF iter   4:   -43.70032437238676   -1.08102e-10   4.23384e-08 DIIS
   @RHF iter   5:   -43.70032437238734   -5.82645e-13   2.21323e-09 DIIS
   @RHF iter   6:   -43.70032437238734    0.00000e+00   1.95248e-10 DIIS

  ==> Post-Iterations <==

    Orbital Energies (a.u.)
    -----------------------

    Doubly Occupied:                                                      

       1Ag    -4.706942     1B3u   -4.706917     2Ag    -4.706917  
       3Ag    -0.301909     2B3u   -0.301307     4Ag    -0.300696  

    Virtual:                                                              

       3B3u    0.075701     1B1u    0.081743     1B2u    0.081743  
       5Ag     0.082392     1B1g    0.082428     1B2g    0.082428  
       2B1u    0.083107     2B2u    0.083107     4B3u    0.089079  
       6Ag     0.432293     5B3u    0.435023     7Ag     0.443609  
       6B3u    0.451784     3B1u    0.463056     3B2u    0.463056  
       2B1g    0.464918     2B2g    0.464918     4B1u    0.466792  
       4B2u    0.466792     8Ag     0.469199     7B3u    0.485683  

    Final Occupation by Irrep:
             Ag   B1g   B2g   B3g    Au   B1u   B2u   B3u 
    DOCC [     4,    0,    0,    0,    0,    0,    0,    2 ]

  Energy converged.

  @RHF Final Energy:   -43.70032437238734

   => Energetics <=

    Nuclear Repulsion Energy =              3.2071345975151537
    One-Electron Energy =                 -63.7655399668597269
    Two-Electron Energy =                  16.8580809969572307
    DFT Exchange-Correlation Energy =       0.0000000000000000
    Empirical Dispersion Energy =           0.0000000000000000
    PCM Polarization Energy =               0.0000000000000000
    EFP Energy =                            0.0000000000000000
    Total Energy =                        -43.7003243723873425


  Saving occupied orbitals to File 180.

*** tstop() called on compute-0-0.local at Tue Aug 15 00:50:33 2017
Module time:
	user time   =       0.21 seconds =       0.00 minutes
	system time =       0.02 seconds =       0.00 minutes
	total time  =          1 seconds =       0.02 minutes
Total time:
	user time   =       0.21 seconds =       0.00 minutes
	system time =       0.02 seconds =       0.00 minutes
	total time  =          1 seconds =       0.02 minutes


Properties will be evaluated at   0.000000,   0.000000,   0.000000 Bohr

Properties computed using the SCF density matrix

  Nuclear Dipole Moment: (a.u.)
     X:     0.0000      Y:     0.0000      Z:     0.0000

  Electronic Dipole Moment: (a.u.)
     X:     0.0000      Y:     0.0000      Z:     0.0000

  Dipole Moment: (a.u.)
     X:     0.0000      Y:     0.0000      Z:     0.0000     Total:     0.0000

  Dipole Moment: (Debye)
     X:     0.0000      Y:     0.0000      Z:     0.0000     Total:     0.0000

 MINTS: Wrapper to libmints.
   by Justin Turney

   Calculation information:
      Number of atoms:                   3
      Number of AO shells:              15
      Number of SO shells:              10
      Number of primitives:             42
      Number of atomic orbitals:        27
      Number of basis functions:        27

      Number of irreps:                  8
      Integral cutoff                 0.00e+00
      Number of functions per irrep: [   8    2    2    0    0    4    4    7 ]

 OEINTS: Overlap, kinetic, potential, dipole, and quadrupole integrals
         stored in file 35.

      Computing two-electron integrals...done
      Computed 11211 non-zero two-electron integrals.
        Stored in file 33.


*** tstart() called on compute-0-0.local
*** at Tue Aug 15 00:50:33 2017


	Wfn Parameters:
	--------------------
	Wavefunction         = CCSD_T
	Number of irreps     = 8
	Number of MOs        = 27
	Number of active MOs = 24
	AO-Basis             = NONE
	Semicanonical        = false
	Reference            = RHF
	Print Level          = 1

	IRREP	# MOs	# FZDC	# DOCC	# SOCC	# VIRT	# FZVR
	-----	-----	------	------	------	------	------
	 Ag	   8	    2	    2	    0	    4	    0
	 B1g	   2	    0	    0	    0	    2	    0
	 B2g	   2	    0	    0	    0	    2	    0
	 B3g	   0	    0	    0	    0	    0	    0
	 Au	   0	    0	    0	    0	    0	    0
	 B1u	   4	    0	    0	    0	    4	    0
	 B2u	   4	    0	    0	    0	    4	    0
	 B3u	   7	    1	    1	    0	    5	    0
	Transforming integrals...
	IWL integrals will be deleted.
	(OO|OO)...
	Presorting SO-basis two-electron integrals.
	Sorting File: SO Ints (nn|nn) nbuckets = 1
	Transforming the one-electron integrals and constructing Fock matrices
	Starting first half-transformation.
	Sorting half-transformed integrals.
	First half integral transformation complete.
	Starting second half-transformation.
	Two-electron integral transformation complete.
	(OO|OV)...
	Starting second half-transformation.
	Two-electron integral transformation complete.
	(OO|VV)...
	Starting second half-transformation.
	Two-electron integral transformation complete.
	(OV|OO)...
	Starting first half-transformation.
	Sorting half-transformed integrals.
	First half integral transformation complete.
	Starting second half-transformation.
	Two-electron integral transformation complete.
	(OV|OV)...
	Starting second half-transformation.
	Two-electron integral transformation complete.
	(OV|VV)...
	Starting second half-transformation.
	Two-electron integral transformation complete.
	(VV|OO)...
	Starting first half-transformation.
	Sorting half-transformed integrals.
	First half integral transformation complete.
	Starting second half-transformation.
	Two-electron integral transformation complete.
	(VV|OV)...
	Starting second half-transformation.
	Two-electron integral transformation complete.
	(VV|VV)...
	Starting second half-transformation.
	Two-electron integral transformation complete.
	Frozen core energy     =    -43.23445722220629

	Size of irrep 0 of <ab|cd> integrals:      0.007 (MW) /      0.052 (MB)
	Size of irrep 1 of <ab|cd> integrals:      0.003 (MW) /      0.025 (MB)
	Size of irrep 2 of <ab|cd> integrals:      0.003 (MW) /      0.025 (MB)
	Size of irrep 3 of <ab|cd> integrals:      0.002 (MW) /      0.013 (MB)
	Size of irrep 4 of <ab|cd> integrals:      0.001 (MW) /      0.008 (MB)
	Size of irrep 5 of <ab|cd> integrals:      0.003 (MW) /      0.022 (MB)
	Size of irrep 6 of <ab|cd> integrals:      0.003 (MW) /      0.022 (MB)
	Size of irrep 7 of <ab|cd> integrals:      0.005 (MW) /      0.041 (MB)
	Total:                                     0.026 (MW) /      0.208 (MB)

	Size of irrep 0 of <ia|bc> integrals:      0.001 (MW) /      0.008 (MB)
	Size of irrep 1 of <ia|bc> integrals:      0.000 (MW) /      0.004 (MB)
	Size of irrep 2 of <ia|bc> integrals:      0.000 (MW) /      0.004 (MB)
	Size of irrep 3 of <ia|bc> integrals:      0.000 (MW) /      0.000 (MB)
	Size of irrep 4 of <ia|bc> integrals:      0.000 (MW) /      0.000 (MB)
	Size of irrep 5 of <ia|bc> integrals:      0.001 (MW) /      0.004 (MB)
	Size of irrep 6 of <ia|bc> integrals:      0.001 (MW) /      0.004 (MB)
	Size of irrep 7 of <ia|bc> integrals:      0.001 (MW) /      0.008 (MB)
	Total:                                     0.004 (MW) /      0.032 (MB)

	Size of irrep 0 of tijab amplitudes:       0.000 (MW) /      0.003 (MB)
	Size of irrep 1 of tijab amplitudes:       0.000 (MW) /      0.000 (MB)
	Size of irrep 2 of tijab amplitudes:       0.000 (MW) /      0.000 (MB)
	Size of irrep 3 of tijab amplitudes:       0.000 (MW) /      0.000 (MB)
	Size of irrep 4 of tijab amplitudes:       0.000 (MW) /      0.000 (MB)
	Size of irrep 5 of tijab amplitudes:       0.000 (MW) /      0.000 (MB)
	Size of irrep 6 of tijab amplitudes:       0.000 (MW) /      0.000 (MB)
	Size of irrep 7 of tijab amplitudes:       0.000 (MW) /      0.002 (MB)
	Total:                                     0.001 (MW) /      0.006 (MB)

	Nuclear Rep. energy          =      3.20713459751515
	SCF energy                   =    -43.70032437238734
	One-electron energy          =     -5.53817827924333
	Two-electron energy          =      1.86517653154704
	Reference energy             =    -43.70032437238743

*** tstop() called on compute-0-0.local at Tue Aug 15 00:50:33 2017
Module time:
	user time   =       0.03 seconds =       0.00 minutes
	system time =       0.05 seconds =       0.00 minutes
	total time  =          0 seconds =       0.00 minutes
Total time:
	user time   =       0.32 seconds =       0.01 minutes
	system time =       0.07 seconds =       0.00 minutes
	total time  =          1 seconds =       0.02 minutes

*** tstart() called on compute-0-0.local
*** at Tue Aug 15 00:50:33 2017

            **************************
            *                        *
            *        CCENERGY        *
            *                        *
            **************************

    Nuclear Rep. energy (wfn)     =    3.207134597515154
    SCF energy          (wfn)     =  -43.700324372387342
    Reference energy    (file100) =  -43.700324372387428

    Input parameters:
    -----------------
    Wave function   =     CCSD_T
    Reference wfn   =     RHF
    Brueckner       =     No
    Memory (Mbytes) =     24000.0
    Maxiter         =     50
    R_Convergence   =     1.0e-07
    E_Convergence   =     1.0e-14
    Restart         =     Yes
    DIIS            =     Yes
    AO Basis        =     NONE
    ABCD            =     NEW
    Cache Level     =     2
    Cache Type      =     LOW
    Print Level     =     1
    Num. of threads =     1
    # Amps to Print =     10
    Print MP2 Amps? =     No
    Analyze T2 Amps =     No
    Print Pair Ener =     No
    Local CC        =     No
    SCS-MP2         =     False
    SCSN-MP2        =     False
    SCS-CCSD        =     False

MP2 correlation energy -0.0699048941970556
                Solving CC Amplitude Equations
                ------------------------------
  Iter             Energy              RMS        T1Diag      D1Diag    New D1Diag    D2Diag
  ----     ---------------------    ---------   ----------  ----------  ----------   --------
     0        -0.069904894197056    0.000e+00    0.000000    0.000000    0.000000    0.162271
     1        -0.103865840090626    1.462e-01    0.004409    0.006281    0.006281    0.245183
     2        -0.138346202278477    7.694e-02    0.011220    0.016034    0.016034    0.333613
     3        -0.137299503415583    5.036e-03    0.011691    0.016733    0.016733    0.332175
     4        -0.137969540269333    1.552e-03    0.011808    0.016902    0.016902    0.333912
     5        -0.137968293654576    7.411e-05    0.011796    0.016886    0.016886    0.333916
     6        -0.137964816089155    1.340e-05    0.011794    0.016884    0.016884    0.333908
     7        -0.137963801234768    3.967e-06    0.011793    0.016883    0.016883    0.333907
     8        -0.137964665467681    2.618e-06    0.011793    0.016883    0.016883    0.333909
     9        -0.137964789435890    5.779e-07    0.011793    0.016883    0.016883    0.333909
    10        -0.137964844425080    2.346e-07    0.011793    0.016883    0.016883    0.333909
    11        -0.137964845357006    4.809e-08    0.011793    0.016883    0.016883    0.333909
    12        -0.137964845774987    1.909e-08    0.011793    0.016883    0.016883    0.333909
    13        -0.137964845951982    6.422e-09    0.011793    0.016883    0.016883    0.333909
    14        -0.137964845974824    2.207e-09    0.011793    0.016883    0.016883    0.333909
    15        -0.137964845987273    1.436e-09    0.011793    0.016883    0.016883    0.333909
    16        -0.137964845992327    7.944e-10    0.011793    0.016883    0.016883    0.333909
    17        -0.137964845980242    3.883e-10    0.011793    0.016883    0.016883    0.333909
    18        -0.137964845974801    1.599e-10    0.011793    0.016883    0.016883    0.333909
    19        -0.137964845972709    5.907e-11    0.011793    0.016883    0.016883    0.333909
    20        -0.137964845972333    2.066e-11    0.011793    0.016883    0.016883    0.333909
    21        -0.137964845972316    1.017e-11    0.011793    0.016883    0.016883    0.333909
    22        -0.137964845972328    5.380e-12    0.011793    0.016883    0.016883    0.333909
    23        -0.137964845972341    2.059e-12    0.011793    0.016883    0.016883    0.333909
    24        -0.137964845972336    7.887e-13    0.011793    0.016883    0.016883    0.333909
    25        -0.137964845972327    3.764e-13    0.011793    0.016883    0.016883    0.333909

    Iterations converged.


    Largest TIA Amplitudes:
              0   1        -0.0162752469
              1   2        -0.0156005170
              2  18        -0.0146994391
              2  19        -0.0073709010
              1   3        -0.0046762174
              0   2        -0.0031231286
              0   3         0.0030911918
              2  20        -0.0026361862
              1   1         0.0020555057
              1   0        -0.0009515341

    Largest TIjAb Amplitudes:
      2   2   4   4        -0.0861779034
      2   2   6   6        -0.0861779034
      2   2   0   0        -0.0857657888
      1   1  17  17        -0.0663955865
      0   1  16  17         0.0661415475
      1   0  17  16         0.0661415475
      0   0  16  16        -0.0659024766
      0   0   8   8        -0.0654692737
      0   0  12  12        -0.0654692737
      0   1   8   9        -0.0654358940

    SCF energy       (wfn)                    =  -43.700324372387342
    Reference energy (file100)                =  -43.700324372387428

    Opposite-spin MP2 correlation energy      =   -0.069851194381909
    Same-spin MP2 correlation energy          =   -0.000053699815146
    MP2 correlation energy                    =   -0.069904894197056
      * MP2 total energy                      =  -43.770229266584487

    Opposite-spin CCSD correlation energy     =   -0.137909418247199
    Same-spin CCSD correlation energy         =   -0.000055427732817
    CCSD correlation energy                   =   -0.137964845972327
      * CCSD total energy                     =  -43.838289218359755


*** tstop() called on compute-0-0.local at Tue Aug 15 00:50:38 2017
Module time:
	user time   =       0.33 seconds =       0.01 minutes
	system time =       0.39 seconds =       0.01 minutes
	total time  =          5 seconds =       0.08 minutes
Total time:
	user time   =       0.65 seconds =       0.01 minutes
	system time =       0.46 seconds =       0.01 minutes
	total time  =          6 seconds =       0.10 minutes

*** tstart() called on compute-0-0.local
*** at Tue Aug 15 00:50:38 2017

            **************************
            *                        *
            *        CCTRIPLES       *
            *                        *
            **************************


    Wave function   =    CCSD_T
    Reference wfn   =      RHF

    Nuclear Rep. energy (wfn)                =    3.207134597515154
    SCF energy          (wfn)                =  -43.700324372387342
    Reference energy    (file100)            =  -43.700324372387428
    CCSD energy         (file100)            =   -0.137964845972327
    Total CCSD energy   (file100)            =  -43.838289218359755

    Number of ijk index combinations:               10
    Memory available in words        :      3000000000
    ~Words needed per explicit thread:             500
    Number of threads for explicit ijk threading:    1

    (T) energy                                =   -0.000005162796869
      * CCSD(T) total energy                  =  -43.838294381156622


*** tstop() called on compute-0-0.local at Tue Aug 15 00:50:38 2017
Module time:
	user time   =       0.02 seconds =       0.00 minutes
	system time =       0.02 seconds =       0.00 minutes
	total time  =          0 seconds =       0.00 minutes
Total time:
	user time   =       0.67 seconds =       0.01 minutes
	system time =       0.48 seconds =       0.01 minutes
	total time  =          6 seconds =       0.10 minutes

*** Psi4 exiting successfully. Buy a developer a beer!
