    -----------------------------------------------------------------------
          Psi4: An Open-Source Ab Initio Electronic Structure Package
                              Psi4 1.0.0 Driver

                          Git: Rev {master} 6a9a71b dirty

    J. M. Turney, A. C. Simmonett, R. M. Parrish, E. G. Hohenstein,
    F. A. Evangelista, J. T. Fermann, B. J. Mintz, L. A. Burns, J. J. Wilke,
    M. L. Abrams, N. J. Russ, M. L. Leininger, C. L. Janssen, E. T. Seidl,
    W. D. Allen, H. F. Schaefer, R. A. King, E. F. Valeev, C. D. Sherrill,
    and T. D. Crawford, WIREs Comput. Mol. Sci. 2, 556-565 (2012)
    (doi: 10.1002/wcms.93)

                         Additional Contributions by
    A. E. DePrince, U. Bozkaya, A. Yu. Sokolov, D. G. A. Smith, R. Di Remigio,
    R. M. Richard, J. F. Gonthier, H. R. McAlexander, M. Saitow, and
    B. P. Pritchard
    -----------------------------------------------------------------------


    Psi4 started on: Tue Aug 15 00:51:27 2017

    Process ID:   9621
    PSI4DATADIR: /home/yhliu/psi4conda/share/psi4
    Memory level set to 256.000 MB

  ==> Input File <==

--------------------------------------------------------------------------
memory 24 Gb
molecule be3 {
0 1
Be  -6.9    0.0 0.0
Be   0.0    0.0 0.0
Be   6.9    0.0 0.0
units angstrom    
}

set basis 6-31g
set freeze_core true
set PRINT_BASIS True
set PUREAM False
set E_CONVERGENCE 1e-14
energy('ccsd(t)')
--------------------------------------------------------------------------
/home/yhliu/psi4conda/lib/python2.7/site-packages/v2rdm_casscf/v2rdm_casscf.so loaded.

  Memory set to  24.000 GiB by Python script.

*** tstart() called on compute-0-0.local
*** at Tue Aug 15 00:51:27 2017


         ---------------------------------------------------------
                                   SCF
            by Justin Turney, Rob Parrish, and Andy Simmonett
                              RHF Reference
                        1 Threads,  24000 MiB Core
         ---------------------------------------------------------

  ==> Geometry <==

    Molecular point group: d2h
    Full point group: D_inf_h

    Geometry (in Angstrom), charge = 0, multiplicity = 1:

       Center              X                  Y                   Z               Mass       
    ------------   -----------------  -----------------  -----------------  -----------------
          BE         -6.900000000000    -0.000000000000     0.000000000000     9.012182201000
          BE          0.000000000000     0.000000000000     0.000000000000     9.012182201000
          BE          6.900000000000     0.000000000000     0.000000000000     9.012182201000

  Running in d2h symmetry.

  Rotational constants: A = ************  B =      0.01964  C =      0.01964 [cm^-1]
  Rotational constants: A = ************  B =    588.92373  C =    588.92373 [MHz]
  Nuclear repulsion =    3.067693962840580

  Charge       = 0
  Multiplicity = 1
  Electrons    = 12
  Nalpha       = 6
  Nbeta        = 6

  ==> Algorithm <==

  SCF Algorithm Type is PK.
  DIIS enabled.
  MOM disabled.
  Fractional occupation disabled.
  Guess Type is SAD.
  Energy threshold   = 1.00e-14
  Density threshold  = 1.00e-08
  Integral threshold = 0.00e+00

  ==> Primary Basis <==

  Basis Set: 6-31G
    Number of shells: 15
    Number of basis function: 27
    Number of Cartesian functions: 27
    Spherical Harmonics?: false
    Max angular momentum: 1

  -AO BASIS SET INFORMATION:
    Name                   = 6-31G
    Total number of shells = 15
    Number of primitives   = 42
    Number of AO           = 27
    Number of SO           = 27
    Maximum AM             = 1
    Spherical Harmonics    = FALSE

  -Contraction Scheme:
    Atom   Type   All Primitives // Shells:
   ------ ------ --------------------------
       1    BE     10s 4p // 3s 2p 
       2    BE     10s 4p // 3s 2p 
       3    BE     10s 4p // 3s 2p 

  ==> AO Basis Functions <==

    [ 6-31G ]
    cartesian
    ****
   BE   1
    S   6 1.00
                      1264.58570000           0.00194480
                       189.93681000           0.01483510
                        43.15908900           0.07209060
                        12.09866300           0.23715420
                         3.80632320           0.46919870
                         1.27289030           0.35652020
    S   3 1.00
                         3.19646310          -0.11264870
                         0.74781330          -0.22950640
                         0.21996630           1.18691670
    P   3 1.00
                         3.19646310           0.05598020
                         0.74781330           0.26155060
                         0.21996630           0.79397230
    S   1 1.00
                         0.08230990           1.00000000
    P   1 1.00
                         0.08230990           1.00000000
    ****
   BE   2
    S   6 1.00
                      1264.58570000           0.00194480
                       189.93681000           0.01483510
                        43.15908900           0.07209060
                        12.09866300           0.23715420
                         3.80632320           0.46919870
                         1.27289030           0.35652020
    S   3 1.00
                         3.19646310          -0.11264870
                         0.74781330          -0.22950640
                         0.21996630           1.18691670
    P   3 1.00
                         3.19646310           0.05598020
                         0.74781330           0.26155060
                         0.21996630           0.79397230
    S   1 1.00
                         0.08230990           1.00000000
    P   1 1.00
                         0.08230990           1.00000000
    ****

  ==> Pre-Iterations <==

   -------------------------------------------------------
    Irrep   Nso     Nmo     Nalpha   Nbeta   Ndocc  Nsocc
   -------------------------------------------------------
     Ag         8       8       0       0       0       0
     B1g        2       2       0       0       0       0
     B2g        2       2       0       0       0       0
     B3g        0       0       0       0       0       0
     Au         0       0       0       0       0       0
     B1u        4       4       0       0       0       0
     B2u        4       4       0       0       0       0
     B3u        7       7       0       0       0       0
   -------------------------------------------------------
    Total      27      27       6       6       6       0
   -------------------------------------------------------

  ==> Integral Setup <==

  Using in-core PK algorithm.
   Calculation information:
      Number of atoms:                   3
      Number of AO shells:              15
      Number of primitives:             42
      Number of atomic orbitals:        27
      Number of basis functions:        27

      Integral cutoff                 1.00e-12
      Number of threads:                 1

  Performing in-core PK
  Using 143262 doubles for integral storage.
  We computed 3581 shell quartets total.
  Whereas there are 7260 unique shell quartets.
  ==> DiskJK: Disk-Based J/K Matrices <==

    J tasked:                  Yes
    K tasked:                  Yes
    wK tasked:                  No
    Memory (MB):             17166
    Schwarz Cutoff:          1E-12

    OpenMP threads:              1
  Minimum eigenvalue in the overlap matrix is 1.2793923137E-01.
  Using Symmetric Orthogonalization.
  SCF Guess: Superposition of Atomic Densities via on-the-fly atomic UHF.

  ==> Iterations <==

                        Total Energy        Delta E     RMS |[F,P]|

   @RHF iter   0:   -43.70029249986702   -4.37003e+01   2.16664e-04 
   @RHF iter   1:   -43.70030620087238   -1.37010e-05   3.47059e-05 
   @RHF iter   2:   -43.70030666875221   -4.67880e-07   6.61888e-06 DIIS
   @RHF iter   3:   -43.70030668874157   -1.99894e-08   2.89448e-07 DIIS
   @RHF iter   4:   -43.70030668877659   -3.50155e-11   2.02219e-08 DIIS
   @RHF iter   5:   -43.70030668877672   -1.35003e-13   1.35117e-09 DIIS
   @RHF iter   6:   -43.70030668877671    7.10543e-15   9.62278e-11 DIIS

  ==> Post-Iterations <==

    Orbital Energies (a.u.)
    -----------------------

    Doubly Occupied:                                                      

       1Ag    -4.706913     1B3u   -4.706902     2Ag    -4.706902  
       3Ag    -0.301661     2B3u   -0.301301     4Ag    -0.300937  

    Virtual:                                                              

       3B3u    0.077889     1B1u    0.082019     1B2u    0.082019  
       5Ag     0.082414     1B1g    0.082432     1B2g    0.082432  
       2B1u    0.082843     2B2u    0.082843     4B3u    0.086914  
       6Ag     0.435417     5B3u    0.437823     7Ag     0.442471  
       6B3u    0.454475     3B1u    0.463795     3B2u    0.463795  
       2B1g    0.464925     2B2g    0.464925     4B1u    0.466059  
       4B2u    0.466059     8Ag     0.466802     7B3u    0.478535  

    Final Occupation by Irrep:
             Ag   B1g   B2g   B3g    Au   B1u   B2u   B3u 
    DOCC [     4,    0,    0,    0,    0,    0,    0,    2 ]

  Energy converged.

  @RHF Final Energy:   -43.70030668877671

   => Energetics <=

    Nuclear Repulsion Energy =              3.0676939628405799
    One-Electron Energy =                 -63.4867690357021672
    Two-Electron Energy =                  16.7187683840848749
    DFT Exchange-Correlation Energy =       0.0000000000000000
    Empirical Dispersion Energy =           0.0000000000000000
    PCM Polarization Energy =               0.0000000000000000
    EFP Energy =                            0.0000000000000000
    Total Energy =                        -43.7003066887767133


  Saving occupied orbitals to File 180.

*** tstop() called on compute-0-0.local at Tue Aug 15 00:51:28 2017
Module time:
	user time   =       0.17 seconds =       0.00 minutes
	system time =       0.01 seconds =       0.00 minutes
	total time  =          1 seconds =       0.02 minutes
Total time:
	user time   =       0.17 seconds =       0.00 minutes
	system time =       0.01 seconds =       0.00 minutes
	total time  =          1 seconds =       0.02 minutes


Properties will be evaluated at   0.000000,   0.000000,   0.000000 Bohr

Properties computed using the SCF density matrix

  Nuclear Dipole Moment: (a.u.)
     X:     0.0000      Y:     0.0000      Z:     0.0000

  Electronic Dipole Moment: (a.u.)
     X:     0.0000      Y:     0.0000      Z:     0.0000

  Dipole Moment: (a.u.)
     X:     0.0000      Y:     0.0000      Z:     0.0000     Total:     0.0000

  Dipole Moment: (Debye)
     X:     0.0000      Y:     0.0000      Z:     0.0000     Total:     0.0000

 MINTS: Wrapper to libmints.
   by Justin Turney

   Calculation information:
      Number of atoms:                   3
      Number of AO shells:              15
      Number of SO shells:              10
      Number of primitives:             42
      Number of atomic orbitals:        27
      Number of basis functions:        27

      Number of irreps:                  8
      Integral cutoff                 0.00e+00
      Number of functions per irrep: [   8    2    2    0    0    4    4    7 ]

 OEINTS: Overlap, kinetic, potential, dipole, and quadrupole integrals
         stored in file 35.

      Computing two-electron integrals...done
      Computed 11211 non-zero two-electron integrals.
        Stored in file 33.


*** tstart() called on compute-0-0.local
*** at Tue Aug 15 00:51:28 2017


	Wfn Parameters:
	--------------------
	Wavefunction         = CCSD_T
	Number of irreps     = 8
	Number of MOs        = 27
	Number of active MOs = 24
	AO-Basis             = NONE
	Semicanonical        = false
	Reference            = RHF
	Print Level          = 1

	IRREP	# MOs	# FZDC	# DOCC	# SOCC	# VIRT	# FZVR
	-----	-----	------	------	------	------	------
	 Ag	   8	    2	    2	    0	    4	    0
	 B1g	   2	    0	    0	    0	    2	    0
	 B2g	   2	    0	    0	    0	    2	    0
	 B3g	   0	    0	    0	    0	    0	    0
	 Au	   0	    0	    0	    0	    0	    0
	 B1u	   4	    0	    0	    0	    4	    0
	 B2u	   4	    0	    0	    0	    4	    0
	 B3u	   7	    1	    1	    0	    5	    0
	Transforming integrals...
	IWL integrals will be deleted.
	(OO|OO)...
	Presorting SO-basis two-electron integrals.
	Sorting File: SO Ints (nn|nn) nbuckets = 1
	Transforming the one-electron integrals and constructing Fock matrices
	Starting first half-transformation.
	Sorting half-transformed integrals.
	First half integral transformation complete.
	Starting second half-transformation.
	Two-electron integral transformation complete.
	(OO|OV)...
	Starting second half-transformation.
	Two-electron integral transformation complete.
	(OO|VV)...
	Starting second half-transformation.
	Two-electron integral transformation complete.
	(OV|OO)...
	Starting first half-transformation.
	Sorting half-transformed integrals.
	First half integral transformation complete.
	Starting second half-transformation.
	Two-electron integral transformation complete.
	(OV|OV)...
	Starting second half-transformation.
	Two-electron integral transformation complete.
	(OV|VV)...
	Starting second half-transformation.
	Two-electron integral transformation complete.
	(VV|OO)...
	Starting first half-transformation.
	Sorting half-transformed integrals.
	First half integral transformation complete.
	Starting second half-transformation.
	Two-electron integral transformation complete.
	(VV|OV)...
	Starting second half-transformation.
	Two-electron integral transformation complete.
	(VV|VV)...
	Starting second half-transformation.
	Two-electron integral transformation complete.
	Frozen core energy     =    -43.12987671062582

	Size of irrep 0 of <ab|cd> integrals:      0.007 (MW) /      0.052 (MB)
	Size of irrep 1 of <ab|cd> integrals:      0.003 (MW) /      0.025 (MB)
	Size of irrep 2 of <ab|cd> integrals:      0.003 (MW) /      0.025 (MB)
	Size of irrep 3 of <ab|cd> integrals:      0.002 (MW) /      0.013 (MB)
	Size of irrep 4 of <ab|cd> integrals:      0.001 (MW) /      0.008 (MB)
	Size of irrep 5 of <ab|cd> integrals:      0.003 (MW) /      0.022 (MB)
	Size of irrep 6 of <ab|cd> integrals:      0.003 (MW) /      0.022 (MB)
	Size of irrep 7 of <ab|cd> integrals:      0.005 (MW) /      0.041 (MB)
	Total:                                     0.026 (MW) /      0.208 (MB)

	Size of irrep 0 of <ia|bc> integrals:      0.001 (MW) /      0.008 (MB)
	Size of irrep 1 of <ia|bc> integrals:      0.000 (MW) /      0.004 (MB)
	Size of irrep 2 of <ia|bc> integrals:      0.000 (MW) /      0.004 (MB)
	Size of irrep 3 of <ia|bc> integrals:      0.000 (MW) /      0.000 (MB)
	Size of irrep 4 of <ia|bc> integrals:      0.000 (MW) /      0.000 (MB)
	Size of irrep 5 of <ia|bc> integrals:      0.001 (MW) /      0.004 (MB)
	Size of irrep 6 of <ia|bc> integrals:      0.001 (MW) /      0.004 (MB)
	Size of irrep 7 of <ia|bc> integrals:      0.001 (MW) /      0.008 (MB)
	Total:                                     0.004 (MW) /      0.032 (MB)

	Size of irrep 0 of tijab amplitudes:       0.000 (MW) /      0.003 (MB)
	Size of irrep 1 of tijab amplitudes:       0.000 (MW) /      0.000 (MB)
	Size of irrep 2 of tijab amplitudes:       0.000 (MW) /      0.000 (MB)
	Size of irrep 3 of tijab amplitudes:       0.000 (MW) /      0.000 (MB)
	Size of irrep 4 of tijab amplitudes:       0.000 (MW) /      0.000 (MB)
	Size of irrep 5 of tijab amplitudes:       0.000 (MW) /      0.000 (MB)
	Size of irrep 6 of tijab amplitudes:       0.000 (MW) /      0.000 (MB)
	Size of irrep 7 of tijab amplitudes:       0.000 (MW) /      0.002 (MB)
	Total:                                     0.001 (MW) /      0.006 (MB)

	Nuclear Rep. energy          =      3.06769396284058
	SCF energy                   =    -43.70030668877671
	One-electron energy          =     -5.46845131581648
	Two-electron energy          =      1.83032737482441
	Reference energy             =    -43.70030668877732

*** tstop() called on compute-0-0.local at Tue Aug 15 00:51:28 2017
Module time:
	user time   =       0.03 seconds =       0.00 minutes
	system time =       0.04 seconds =       0.00 minutes
	total time  =          0 seconds =       0.00 minutes
Total time:
	user time   =       0.26 seconds =       0.00 minutes
	system time =       0.05 seconds =       0.00 minutes
	total time  =          1 seconds =       0.02 minutes

*** tstart() called on compute-0-0.local
*** at Tue Aug 15 00:51:28 2017

            **************************
            *                        *
            *        CCENERGY        *
            *                        *
            **************************

    Nuclear Rep. energy (wfn)     =    3.067693962840580
    SCF energy          (wfn)     =  -43.700306688776713
    Reference energy    (file100) =  -43.700306688777317

    Input parameters:
    -----------------
    Wave function   =     CCSD_T
    Reference wfn   =     RHF
    Brueckner       =     No
    Memory (Mbytes) =     24000.0
    Maxiter         =     50
    R_Convergence   =     1.0e-07
    E_Convergence   =     1.0e-14
    Restart         =     Yes
    DIIS            =     Yes
    AO Basis        =     NONE
    ABCD            =     NEW
    Cache Level     =     2
    Cache Type      =     LOW
    Print Level     =     1
    Num. of threads =     1
    # Amps to Print =     10
    Print MP2 Amps? =     No
    Analyze T2 Amps =     No
    Print Pair Ener =     No
    Local CC        =     No
    SCS-MP2         =     False
    SCSN-MP2        =     False
    SCS-CCSD        =     False

MP2 correlation energy -0.0698816524716432
                Solving CC Amplitude Equations
                ------------------------------
  Iter             Energy              RMS        T1Diag      D1Diag    New D1Diag    D2Diag
  ----     ---------------------    ---------   ----------  ----------  ----------   --------
     0        -0.069881652471643    0.000e+00    0.000000    0.000000    0.000000    0.162171
     1        -0.103843766615750    1.462e-01    0.004411    0.006268    0.006268    0.245058
     2        -0.138347085587807    7.696e-02    0.011222    0.015975    0.015975    0.333508
     3        -0.137294591577051    5.013e-03    0.011688    0.016652    0.016652    0.332055
     4        -0.137950667680829    1.547e-03    0.011801    0.016815    0.016815    0.333755
     5        -0.137961750437189    7.364e-05    0.011791    0.016801    0.016801    0.333792
     6        -0.137958386808047    9.254e-06    0.011789    0.016799    0.016799    0.333784
     7        -0.137957859570910    3.638e-06    0.011789    0.016798    0.016798    0.333784
     8        -0.137958798994855    2.492e-06    0.011789    0.016798    0.016798    0.333786
     9        -0.137958852986075    3.384e-07    0.011789    0.016798    0.016798    0.333786
    10        -0.137958881402846    1.588e-07    0.011789    0.016798    0.016798    0.333786
    11        -0.137958882421398    3.545e-08    0.011789    0.016798    0.016798    0.333786
    12        -0.137958882616417    1.239e-08    0.011789    0.016798    0.016798    0.333786
    13        -0.137958882703292    4.841e-09    0.011789    0.016798    0.016798    0.333786
    14        -0.137958882729711    9.680e-10    0.011789    0.016798    0.016798    0.333786
    15        -0.137958882739547    4.987e-10    0.011789    0.016798    0.016798    0.333786
    16        -0.137958882742367    2.583e-10    0.011789    0.016798    0.016798    0.333786
    17        -0.137958882741943    1.533e-10    0.011789    0.016798    0.016798    0.333786
    18        -0.137958882738982    8.812e-11    0.011789    0.016798    0.016798    0.333786
    19        -0.137958882738002    2.727e-11    0.011789    0.016798    0.016798    0.333786
    20        -0.137958882737869    1.072e-11    0.011789    0.016798    0.016798    0.333786
    21        -0.137958882738002    4.520e-12    0.011789    0.016798    0.016798    0.333786
    22        -0.137958882738121    2.252e-12    0.011789    0.016798    0.016798    0.333786
    23        -0.137958882738193    1.059e-12    0.011789    0.016798    0.016798    0.333786
    24        -0.137958882738195    3.749e-13    0.011789    0.016798    0.016798    0.333786
    25        -0.137958882738185    1.679e-13    0.011789    0.016798    0.016798    0.333786

    Iterations converged.


    Largest TIA Amplitudes:
              0   1        -0.0164753023
              1   2        -0.0161347149
              2  18        -0.0158984716
              2  19        -0.0045831370
              1   3        -0.0031435229
              0   3         0.0024007384
              0   2        -0.0021525709
              2  20        -0.0020049618
              1   1         0.0016153141
              1   0        -0.0006074030

    Largest TIjAb Amplitudes:
      2   2   4   4        -0.0861737911
      2   2   6   6        -0.0861737911
      2   2   0   0        -0.0858319263
      1   1  17  17        -0.0661585271
      0   1  16  17         0.0659667551
      1   0  17  16         0.0659667551
      0   0  16  16        -0.0657817227
      0   0   8   8        -0.0653856050
      0   0  12  12        -0.0653856050
      0   1   8   9        -0.0653336119

    SCF energy       (wfn)                    =  -43.700306688776713
    Reference energy (file100)                =  -43.700306688777317

    Opposite-spin MP2 correlation energy      =   -0.069840729830189
    Same-spin MP2 correlation energy          =   -0.000040922641454
    MP2 correlation energy                    =   -0.069881652471643
      * MP2 total energy                      =  -43.770188341248961

    Opposite-spin CCSD correlation energy     =   -0.137916645422975
    Same-spin CCSD correlation energy         =   -0.000042237318396
    CCSD correlation energy                   =   -0.137958882738185
      * CCSD total energy                     =  -43.838265571515500


*** tstop() called on compute-0-0.local at Tue Aug 15 00:51:56 2017
Module time:
	user time   =       0.33 seconds =       0.01 minutes
	system time =       0.41 seconds =       0.01 minutes
	total time  =         28 seconds =       0.47 minutes
Total time:
	user time   =       0.59 seconds =       0.01 minutes
	system time =       0.46 seconds =       0.01 minutes
	total time  =         29 seconds =       0.48 minutes

*** tstart() called on compute-0-0.local
*** at Tue Aug 15 00:51:56 2017

            **************************
            *                        *
            *        CCTRIPLES       *
            *                        *
            **************************


    Wave function   =    CCSD_T
    Reference wfn   =      RHF

    Nuclear Rep. energy (wfn)                =    3.067693962840580
    SCF energy          (wfn)                =  -43.700306688776713
    Reference energy    (file100)            =  -43.700306688777317
    CCSD energy         (file100)            =   -0.137958882738185
    Total CCSD energy   (file100)            =  -43.838265571515500

    Number of ijk index combinations:               10
    Memory available in words        :      3000000000
    ~Words needed per explicit thread:             500
    Number of threads for explicit ijk threading:    1

    (T) energy                                =   -0.000003749063312
      * CCSD(T) total energy                  =  -43.838269320578817


*** tstop() called on compute-0-0.local at Tue Aug 15 00:51:56 2017
Module time:
	user time   =       0.01 seconds =       0.00 minutes
	system time =       0.01 seconds =       0.00 minutes
	total time  =          0 seconds =       0.00 minutes
Total time:
	user time   =       0.60 seconds =       0.01 minutes
	system time =       0.47 seconds =       0.01 minutes
	total time  =         29 seconds =       0.48 minutes

*** Psi4 exiting successfully. Buy a developer a beer!
