    -----------------------------------------------------------------------
          Psi4: An Open-Source Ab Initio Electronic Structure Package
                              Psi4 1.0.0 Driver

                          Git: Rev {master} 6a9a71b dirty

    J. M. Turney, A. C. Simmonett, R. M. Parrish, E. G. Hohenstein,
    F. A. Evangelista, J. T. Fermann, B. J. Mintz, L. A. Burns, J. J. Wilke,
    M. L. Abrams, N. J. Russ, M. L. Leininger, C. L. Janssen, E. T. Seidl,
    W. D. Allen, H. F. Schaefer, R. A. King, E. F. Valeev, C. D. Sherrill,
    and T. D. Crawford, WIREs Comput. Mol. Sci. 2, 556-565 (2012)
    (doi: 10.1002/wcms.93)

                         Additional Contributions by
    A. E. DePrince, U. Bozkaya, A. Yu. Sokolov, D. G. A. Smith, R. Di Remigio,
    R. M. Richard, J. F. Gonthier, H. R. McAlexander, M. Saitow, and
    B. P. Pritchard
    -----------------------------------------------------------------------


    Psi4 started on: Tue Aug 15 00:40:42 2017

    Process ID:   9212
    PSI4DATADIR: /home/yhliu/psi4conda/share/psi4
    Memory level set to 256.000 MB

  ==> Input File <==

--------------------------------------------------------------------------
memory 24 Gb
molecule be3 {
0 1
Be  -4.4    0.0 0.0
Be   0.0    0.0 0.0
Be   4.4    0.0 0.0
units angstrom    
}

set basis 6-31g
set freeze_core true
set PRINT_BASIS True
set PUREAM False
set E_CONVERGENCE 1e-14
energy('ccsd(t)')
--------------------------------------------------------------------------
/home/yhliu/psi4conda/lib/python2.7/site-packages/v2rdm_casscf/v2rdm_casscf.so loaded.

  Memory set to  24.000 GiB by Python script.

*** tstart() called on compute-0-0.local
*** at Tue Aug 15 00:40:43 2017


         ---------------------------------------------------------
                                   SCF
            by Justin Turney, Rob Parrish, and Andy Simmonett
                              RHF Reference
                        1 Threads,  24000 MiB Core
         ---------------------------------------------------------

  ==> Geometry <==

    Molecular point group: d2h
    Full point group: D_inf_h

    Geometry (in Angstrom), charge = 0, multiplicity = 1:

       Center              X                  Y                   Z               Mass       
    ------------   -----------------  -----------------  -----------------  -----------------
          BE         -4.400000000000    -0.000000000000     0.000000000000     9.012182201000
          BE          0.000000000000     0.000000000000     0.000000000000     9.012182201000
          BE          4.400000000000     0.000000000000     0.000000000000     9.012182201000

  Running in d2h symmetry.

  Rotational constants: A = ************  B =      0.04831  C =      0.04831 [cm^-1]
  Rotational constants: A = ************  B =   1448.27783  C =   1448.27783 [MHz]
  Nuclear repulsion =    4.810701896272728

  Charge       = 0
  Multiplicity = 1
  Electrons    = 12
  Nalpha       = 6
  Nbeta        = 6

  ==> Algorithm <==

  SCF Algorithm Type is PK.
  DIIS enabled.
  MOM disabled.
  Fractional occupation disabled.
  Guess Type is SAD.
  Energy threshold   = 1.00e-14
  Density threshold  = 1.00e-08
  Integral threshold = 0.00e+00

  ==> Primary Basis <==

  Basis Set: 6-31G
    Number of shells: 15
    Number of basis function: 27
    Number of Cartesian functions: 27
    Spherical Harmonics?: false
    Max angular momentum: 1

  -AO BASIS SET INFORMATION:
    Name                   = 6-31G
    Total number of shells = 15
    Number of primitives   = 42
    Number of AO           = 27
    Number of SO           = 27
    Maximum AM             = 1
    Spherical Harmonics    = FALSE

  -Contraction Scheme:
    Atom   Type   All Primitives // Shells:
   ------ ------ --------------------------
       1    BE     10s 4p // 3s 2p 
       2    BE     10s 4p // 3s 2p 
       3    BE     10s 4p // 3s 2p 

  ==> AO Basis Functions <==

    [ 6-31G ]
    cartesian
    ****
   BE   1
    S   6 1.00
                      1264.58570000           0.00194480
                       189.93681000           0.01483510
                        43.15908900           0.07209060
                        12.09866300           0.23715420
                         3.80632320           0.46919870
                         1.27289030           0.35652020
    S   3 1.00
                         3.19646310          -0.11264870
                         0.74781330          -0.22950640
                         0.21996630           1.18691670
    P   3 1.00
                         3.19646310           0.05598020
                         0.74781330           0.26155060
                         0.21996630           0.79397230
    S   1 1.00
                         0.08230990           1.00000000
    P   1 1.00
                         0.08230990           1.00000000
    ****
   BE   2
    S   6 1.00
                      1264.58570000           0.00194480
                       189.93681000           0.01483510
                        43.15908900           0.07209060
                        12.09866300           0.23715420
                         3.80632320           0.46919870
                         1.27289030           0.35652020
    S   3 1.00
                         3.19646310          -0.11264870
                         0.74781330          -0.22950640
                         0.21996630           1.18691670
    P   3 1.00
                         3.19646310           0.05598020
                         0.74781330           0.26155060
                         0.21996630           0.79397230
    S   1 1.00
                         0.08230990           1.00000000
    P   1 1.00
                         0.08230990           1.00000000
    ****

  ==> Pre-Iterations <==

   -------------------------------------------------------
    Irrep   Nso     Nmo     Nalpha   Nbeta   Ndocc  Nsocc
   -------------------------------------------------------
     Ag         8       8       0       0       0       0
     B1g        2       2       0       0       0       0
     B2g        2       2       0       0       0       0
     B3g        0       0       0       0       0       0
     Au         0       0       0       0       0       0
     B1u        4       4       0       0       0       0
     B2u        4       4       0       0       0       0
     B3u        7       7       0       0       0       0
   -------------------------------------------------------
    Total      27      27       6       6       6       0
   -------------------------------------------------------

  ==> Integral Setup <==

  Using in-core PK algorithm.
   Calculation information:
      Number of atoms:                   3
      Number of AO shells:              15
      Number of primitives:             42
      Number of atomic orbitals:        27
      Number of basis functions:        27

      Integral cutoff                 1.00e-12
      Number of threads:                 1

  Performing in-core PK
  Using 143262 doubles for integral storage.
  We computed 5748 shell quartets total.
  Whereas there are 7260 unique shell quartets.
  ==> DiskJK: Disk-Based J/K Matrices <==

    J tasked:                  Yes
    K tasked:                  Yes
    wK tasked:                  No
    Memory (MB):             17166
    Schwarz Cutoff:          1E-12

    OpenMP threads:              1
  Minimum eigenvalue in the overlap matrix is 9.8631768351E-02.
  Using Symmetric Orthogonalization.
  SCF Guess: Superposition of Atomic Densities via on-the-fly atomic UHF.

  ==> Iterations <==

                        Total Energy        Delta E     RMS |[F,P]|

   @RHF iter   0:   -43.70269997353628   -4.37027e+01   2.08381e-03 
   @RHF iter   1:   -43.70068360631503    2.01637e-03   4.47012e-04 
   @RHF iter   2:   -43.70077923039359   -9.56241e-05   1.47866e-04 DIIS
   @RHF iter   3:   -43.70079184978464   -1.26194e-05   9.20025e-06 DIIS
   @RHF iter   4:   -43.70079188374908   -3.39644e-08   9.06771e-07 DIIS
   @RHF iter   5:   -43.70079188399119   -2.42103e-10   8.50683e-08 DIIS
   @RHF iter   6:   -43.70079188399337   -2.18137e-12   5.67602e-09 DIIS
   @RHF iter   7:   -43.70079188399335    1.42109e-14   7.39451e-10 DIIS
   @RHF iter   8:   -43.70079188399338   -2.84217e-14   8.78951e-11 DIIS
   @RHF iter   9:   -43.70079188399335    2.84217e-14   7.57225e-12 DIIS
   @RHF iter  10:   -43.70079188399337   -1.42109e-14   6.72990e-13 DIIS
   @RHF iter  11:   -43.70079188399333    4.26326e-14   8.87201e-14 DIIS
   @RHF iter  12:   -43.70079188399338   -5.68434e-14   2.27904e-14 DIIS
   @RHF iter  13:   -43.70079188399335    2.84217e-14   7.26136e-15 DIIS
   @RHF iter  14:   -43.70079188399334    1.42109e-14   2.56974e-15 DIIS
   @RHF iter  15:   -43.70079188399334    0.00000e+00   1.33910e-15 DIIS

  ==> Post-Iterations <==

    Orbital Energies (a.u.)
    -----------------------

    Doubly Occupied:                                                      

       1Ag    -4.708318     1B3u   -4.707464     2Ag    -4.707463  
       3Ag    -0.314960     2B3u   -0.301990     4Ag    -0.287383  

    Virtual:                                                              

       3B3u    0.049041     1B2u    0.070856     1B1u    0.070856  
       1B2g    0.082294     1B1g    0.082294     5Ag     0.087615  
       2B2u    0.094430     2B1u    0.094430     4B3u    0.139479  
       6Ag     0.408537     5B3u    0.431097     3B2u    0.447503  
       3B1u    0.447503     7Ag     0.455922     2B2g    0.464548  
       2B1g    0.464548     6B3u    0.470944     4B2u    0.487722  
       4B1u    0.487722     8Ag     0.549264     7B3u    0.609233  

    Final Occupation by Irrep:
             Ag   B1g   B2g   B3g    Au   B1u   B2u   B3u 
    DOCC [     4,    0,    0,    0,    0,    0,    0,    2 ]

  Energy converged.

  @RHF Final Energy:   -43.70079188399334

   => Energetics <=

    Nuclear Repulsion Energy =              4.8107018962727279
    One-Electron Energy =                 -66.9678309645466356
    Two-Electron Energy =                  18.4563371842805743
    DFT Exchange-Correlation Energy =       0.0000000000000000
    Empirical Dispersion Energy =           0.0000000000000000
    PCM Polarization Energy =               0.0000000000000000
    EFP Energy =                            0.0000000000000000
    Total Energy =                        -43.7007918839933325


  Saving occupied orbitals to File 180.

*** tstop() called on compute-0-0.local at Tue Aug 15 00:40:43 2017
Module time:
	user time   =       0.19 seconds =       0.00 minutes
	system time =       0.01 seconds =       0.00 minutes
	total time  =          0 seconds =       0.00 minutes
Total time:
	user time   =       0.19 seconds =       0.00 minutes
	system time =       0.01 seconds =       0.00 minutes
	total time  =          0 seconds =       0.00 minutes


Properties will be evaluated at   0.000000,   0.000000,   0.000000 Bohr

Properties computed using the SCF density matrix

  Nuclear Dipole Moment: (a.u.)
     X:     0.0000      Y:     0.0000      Z:     0.0000

  Electronic Dipole Moment: (a.u.)
     X:     0.0000      Y:     0.0000      Z:     0.0000

  Dipole Moment: (a.u.)
     X:     0.0000      Y:     0.0000      Z:     0.0000     Total:     0.0000

  Dipole Moment: (Debye)
     X:     0.0000      Y:     0.0000      Z:     0.0000     Total:     0.0000

 MINTS: Wrapper to libmints.
   by Justin Turney

   Calculation information:
      Number of atoms:                   3
      Number of AO shells:              15
      Number of SO shells:              10
      Number of primitives:             42
      Number of atomic orbitals:        27
      Number of basis functions:        27

      Number of irreps:                  8
      Integral cutoff                 0.00e+00
      Number of functions per irrep: [   8    2    2    0    0    4    4    7 ]

 OEINTS: Overlap, kinetic, potential, dipole, and quadrupole integrals
         stored in file 35.

      Computing two-electron integrals...done
      Computed 11211 non-zero two-electron integrals.
        Stored in file 33.


*** tstart() called on compute-0-0.local
*** at Tue Aug 15 00:40:43 2017


	Wfn Parameters:
	--------------------
	Wavefunction         = CCSD_T
	Number of irreps     = 8
	Number of MOs        = 27
	Number of active MOs = 24
	AO-Basis             = NONE
	Semicanonical        = false
	Reference            = RHF
	Print Level          = 1

	IRREP	# MOs	# FZDC	# DOCC	# SOCC	# VIRT	# FZVR
	-----	-----	------	------	------	------	------
	 Ag	   8	    2	    2	    0	    4	    0
	 B1g	   2	    0	    0	    0	    2	    0
	 B2g	   2	    0	    0	    0	    2	    0
	 B3g	   0	    0	    0	    0	    0	    0
	 Au	   0	    0	    0	    0	    0	    0
	 B1u	   4	    0	    0	    0	    4	    0
	 B2u	   4	    0	    0	    0	    4	    0
	 B3u	   7	    1	    1	    0	    5	    0
	Transforming integrals...
	IWL integrals will be deleted.
	(OO|OO)...
	Presorting SO-basis two-electron integrals.
	Sorting File: SO Ints (nn|nn) nbuckets = 1
	Transforming the one-electron integrals and constructing Fock matrices
	Starting first half-transformation.
	Sorting half-transformed integrals.
	First half integral transformation complete.
	Starting second half-transformation.
	Two-electron integral transformation complete.
	(OO|OV)...
	Starting second half-transformation.
	Two-electron integral transformation complete.
	(OO|VV)...
	Starting second half-transformation.
	Two-electron integral transformation complete.
	(OV|OO)...
	Starting first half-transformation.
	Sorting half-transformed integrals.
	First half integral transformation complete.
	Starting second half-transformation.
	Two-electron integral transformation complete.
	(OV|OV)...
	Starting second half-transformation.
	Two-electron integral transformation complete.
	(OV|VV)...
	Starting second half-transformation.
	Two-electron integral transformation complete.
	(VV|OO)...
	Starting first half-transformation.
	Sorting half-transformed integrals.
	First half integral transformation complete.
	Starting second half-transformation.
	Two-electron integral transformation complete.
	(VV|OV)...
	Starting second half-transformation.
	Two-electron integral transformation complete.
	(VV|VV)...
	Starting second half-transformation.
	Two-electron integral transformation complete.
	Frozen core energy     =    -44.43714059927353

	Size of irrep 0 of <ab|cd> integrals:      0.007 (MW) /      0.052 (MB)
	Size of irrep 1 of <ab|cd> integrals:      0.003 (MW) /      0.025 (MB)
	Size of irrep 2 of <ab|cd> integrals:      0.003 (MW) /      0.025 (MB)
	Size of irrep 3 of <ab|cd> integrals:      0.002 (MW) /      0.013 (MB)
	Size of irrep 4 of <ab|cd> integrals:      0.001 (MW) /      0.008 (MB)
	Size of irrep 5 of <ab|cd> integrals:      0.003 (MW) /      0.022 (MB)
	Size of irrep 6 of <ab|cd> integrals:      0.003 (MW) /      0.022 (MB)
	Size of irrep 7 of <ab|cd> integrals:      0.005 (MW) /      0.041 (MB)
	Total:                                     0.026 (MW) /      0.208 (MB)

	Size of irrep 0 of <ia|bc> integrals:      0.001 (MW) /      0.008 (MB)
	Size of irrep 1 of <ia|bc> integrals:      0.000 (MW) /      0.004 (MB)
	Size of irrep 2 of <ia|bc> integrals:      0.000 (MW) /      0.004 (MB)
	Size of irrep 3 of <ia|bc> integrals:      0.000 (MW) /      0.000 (MB)
	Size of irrep 4 of <ia|bc> integrals:      0.000 (MW) /      0.000 (MB)
	Size of irrep 5 of <ia|bc> integrals:      0.001 (MW) /      0.004 (MB)
	Size of irrep 6 of <ia|bc> integrals:      0.001 (MW) /      0.004 (MB)
	Size of irrep 7 of <ia|bc> integrals:      0.001 (MW) /      0.008 (MB)
	Total:                                     0.004 (MW) /      0.032 (MB)

	Size of irrep 0 of tijab amplitudes:       0.000 (MW) /      0.003 (MB)
	Size of irrep 1 of tijab amplitudes:       0.000 (MW) /      0.000 (MB)
	Size of irrep 2 of tijab amplitudes:       0.000 (MW) /      0.000 (MB)
	Size of irrep 3 of tijab amplitudes:       0.000 (MW) /      0.000 (MB)
	Size of irrep 4 of tijab amplitudes:       0.000 (MW) /      0.000 (MB)
	Size of irrep 5 of tijab amplitudes:       0.000 (MW) /      0.000 (MB)
	Size of irrep 6 of tijab amplitudes:       0.000 (MW) /      0.000 (MB)
	Size of irrep 7 of tijab amplitudes:       0.000 (MW) /      0.002 (MB)
	Total:                                     0.001 (MW) /      0.006 (MB)

	Nuclear Rep. energy          =      4.81070189627273
	SCF energy                   =    -43.70079188399334
	One-electron energy          =     -6.34003827494454
	Two-electron energy          =      2.26568509395139
	Reference energy             =    -43.70079188399396

*** tstop() called on compute-0-0.local at Tue Aug 15 00:40:44 2017
Module time:
	user time   =       0.03 seconds =       0.00 minutes
	system time =       0.03 seconds =       0.00 minutes
	total time  =          1 seconds =       0.02 minutes
Total time:
	user time   =       0.27 seconds =       0.00 minutes
	system time =       0.04 seconds =       0.00 minutes
	total time  =          1 seconds =       0.02 minutes

*** tstart() called on compute-0-0.local
*** at Tue Aug 15 00:40:44 2017

            **************************
            *                        *
            *        CCENERGY        *
            *                        *
            **************************

    Nuclear Rep. energy (wfn)     =    4.810701896272728
    SCF energy          (wfn)     =  -43.700791883993340
    Reference energy    (file100) =  -43.700791883993958

    Input parameters:
    -----------------
    Wave function   =     CCSD_T
    Reference wfn   =     RHF
    Brueckner       =     No
    Memory (Mbytes) =     24000.0
    Maxiter         =     50
    R_Convergence   =     1.0e-07
    E_Convergence   =     1.0e-14
    Restart         =     Yes
    DIIS            =     Yes
    AO Basis        =     NONE
    ABCD            =     NEW
    Cache Level     =     2
    Cache Type      =     LOW
    Print Level     =     1
    Num. of threads =     1
    # Amps to Print =     10
    Print MP2 Amps? =     No
    Analyze T2 Amps =     No
    Print Pair Ener =     No
    Local CC        =     No
    SCS-MP2         =     False
    SCSN-MP2        =     False
    SCS-CCSD        =     False

MP2 correlation energy -0.0708066116419240
                Solving CC Amplitude Equations
                ------------------------------
  Iter             Energy              RMS        T1Diag      D1Diag    New D1Diag    D2Diag
  ----     ---------------------    ---------   ----------  ----------  ----------   --------
     0        -0.070806611641924    0.000e+00    0.000000    0.000000    0.000000    0.166370
     1        -0.104554175979976    1.447e-01    0.004500    0.006661    0.006661    0.250265
     2        -0.137847955893258    7.577e-02    0.011981    0.017962    0.017962    0.338049
     3        -0.137111640199502    6.388e-03    0.013034    0.019638    0.019638    0.337593
     4        -0.137762528454182    1.928e-03    0.013281    0.020042    0.020042    0.339355
     5        -0.137929078035386    3.858e-04    0.013361    0.020177    0.020177    0.339787
     6        -0.137827543417466    2.570e-04    0.013338    0.020141    0.020141    0.339516
     7        -0.137814275967832    3.339e-05    0.013335    0.020137    0.020137    0.339481
     8        -0.137819960702961    2.255e-05    0.013337    0.020138    0.020138    0.339497
     9        -0.137821638278897    7.490e-06    0.013337    0.020138    0.020138    0.339502
    10        -0.137821671741408    4.041e-06    0.013337    0.020138    0.020138    0.339502
    11        -0.137821595057322    2.199e-06    0.013336    0.020137    0.020137    0.339502
    12        -0.137821605322588    6.679e-07    0.013336    0.020137    0.020137    0.339502
    13        -0.137821614778219    3.249e-07    0.013336    0.020137    0.020137    0.339502
    14        -0.137821616237801    1.272e-07    0.013336    0.020137    0.020137    0.339502
    15        -0.137821615316929    5.142e-08    0.013336    0.020137    0.020137    0.339502
    16        -0.137821614284484    2.260e-08    0.013336    0.020137    0.020137    0.339502
    17        -0.137821614061185    7.085e-09    0.013336    0.020137    0.020137    0.339502
    18        -0.137821613878247    2.516e-09    0.013336    0.020137    0.020137    0.339502
    19        -0.137821613815417    1.403e-09    0.013336    0.020137    0.020137    0.339502
    20        -0.137821613812259    7.923e-10    0.013336    0.020137    0.020137    0.339502
    21        -0.137821613828441    4.433e-10    0.013336    0.020137    0.020137    0.339502
    22        -0.137821613829711    1.853e-10    0.013336    0.020137    0.020137    0.339502
    23        -0.137821613826754    9.705e-11    0.013336    0.020137    0.020137    0.339502
    24        -0.137821613824790    4.711e-11    0.013336    0.020137    0.020137    0.339502
    25        -0.137821613824140    2.422e-11    0.013336    0.020137    0.020137    0.339502
    26        -0.137821613824197    1.331e-11    0.013336    0.020137    0.020137    0.339502
    27        -0.137821613824347    6.867e-12    0.013336    0.020137    0.020137    0.339502
    28        -0.137821613824579    3.264e-12    0.013336    0.020137    0.020137    0.339502
    29        -0.137821613824670    1.627e-12    0.013336    0.020137    0.020137    0.339502
    30        -0.137821613824685    8.495e-13    0.013336    0.020137    0.020137    0.339502
    31        -0.137821613824667    4.614e-13    0.013336    0.020137    0.020137    0.339502
    32        -0.137821613824654    2.863e-13    0.013336    0.020137    0.020137    0.339502
    33        -0.137821613824649    1.651e-13    0.013336    0.020137    0.020137    0.339502
    34        -0.137821613824652    8.743e-14    0.013336    0.020137    0.020137    0.339502

    Iterations converged.


    Largest TIA Amplitudes:
              0   1         0.0168419968
              2  18         0.0144679866
              1   0         0.0107063346
              1   2        -0.0100022039
              2  17         0.0096343882
              1   3        -0.0094832302
              2  16         0.0087555678
              0   0        -0.0078829631
              2  20        -0.0045760785
              0   2        -0.0028233717

    Largest TIjAb Amplitudes:
      2   2   4   4        -0.0856102684
      2   2   6   6        -0.0856102684
      2   2   0   0        -0.0836470292
      0   0  16  16        -0.0745131170
      0   1  16  17         0.0697157921
      1   0  17  16         0.0697157921
      1   1  16  16        -0.0694071219
      1   1   9   9        -0.0692521843
      1   1  13  13        -0.0692521843
      0   1   8   9        -0.0671405230

    SCF energy       (wfn)                    =  -43.700791883993340
    Reference energy (file100)                =  -43.700791883993958

    Opposite-spin MP2 correlation energy      =   -0.070139932538934
    Same-spin MP2 correlation energy          =   -0.000666679102990
    MP2 correlation energy                    =   -0.070806611641924
      * MP2 total energy                      =  -43.771598495635885

    Opposite-spin CCSD correlation energy     =   -0.137104567132472
    Same-spin CCSD correlation energy         =   -0.000717046692179
    CCSD correlation energy                   =   -0.137821613824652
      * CCSD total energy                     =  -43.838613497818606


*** tstop() called on compute-0-0.local at Tue Aug 15 00:40:50 2017
Module time:
	user time   =       0.50 seconds =       0.01 minutes
	system time =       0.59 seconds =       0.01 minutes
	total time  =          6 seconds =       0.10 minutes
Total time:
	user time   =       0.77 seconds =       0.01 minutes
	system time =       0.63 seconds =       0.01 minutes
	total time  =          7 seconds =       0.12 minutes

*** tstart() called on compute-0-0.local
*** at Tue Aug 15 00:40:50 2017

            **************************
            *                        *
            *        CCTRIPLES       *
            *                        *
            **************************


    Wave function   =    CCSD_T
    Reference wfn   =      RHF

    Nuclear Rep. energy (wfn)                =    4.810701896272728
    SCF energy          (wfn)                =  -43.700791883993340
    Reference energy    (file100)            =  -43.700791883993958
    CCSD energy         (file100)            =   -0.137821613824652
    Total CCSD energy   (file100)            =  -43.838613497818606

    Number of ijk index combinations:               10
    Memory available in words        :      3000000000
    ~Words needed per explicit thread:             500
    Number of threads for explicit ijk threading:    1

    (T) energy                                =   -0.000151267818591
      * CCSD(T) total energy                  =  -43.838764765637201


*** tstop() called on compute-0-0.local at Tue Aug 15 00:40:50 2017
Module time:
	user time   =       0.01 seconds =       0.00 minutes
	system time =       0.01 seconds =       0.00 minutes
	total time  =          0 seconds =       0.00 minutes
Total time:
	user time   =       0.78 seconds =       0.01 minutes
	system time =       0.64 seconds =       0.01 minutes
	total time  =          7 seconds =       0.12 minutes

*** Psi4 exiting successfully. Buy a developer a beer!
