    -----------------------------------------------------------------------
          Psi4: An Open-Source Ab Initio Electronic Structure Package
                              Psi4 1.0.0 Driver

                          Git: Rev {master} 6a9a71b dirty

    J. M. Turney, A. C. Simmonett, R. M. Parrish, E. G. Hohenstein,
    F. A. Evangelista, J. T. Fermann, B. J. Mintz, L. A. Burns, J. J. Wilke,
    M. L. Abrams, N. J. Russ, M. L. Leininger, C. L. Janssen, E. T. Seidl,
    W. D. Allen, H. F. Schaefer, R. A. King, E. F. Valeev, C. D. Sherrill,
    and T. D. Crawford, WIREs Comput. Mol. Sci. 2, 556-565 (2012)
    (doi: 10.1002/wcms.93)

                         Additional Contributions by
    A. E. DePrince, U. Bozkaya, A. Yu. Sokolov, D. G. A. Smith, R. Di Remigio,
    R. M. Richard, J. F. Gonthier, H. R. McAlexander, M. Saitow, and
    B. P. Pritchard
    -----------------------------------------------------------------------


    Psi4 started on: Tue Aug 15 00:51:56 2017

    Process ID:   9627
    PSI4DATADIR: /home/yhliu/psi4conda/share/psi4
    Memory level set to 256.000 MB

  ==> Input File <==

--------------------------------------------------------------------------
memory 24 Gb
molecule be3 {
0 1
Be  -7.0    0.0 0.0
Be   0.0    0.0 0.0
Be   7.0    0.0 0.0
units angstrom    
}

set basis 6-31g
set freeze_core true
set PRINT_BASIS True
set PUREAM False
set E_CONVERGENCE 1e-14
energy('ccsd(t)')
--------------------------------------------------------------------------
/home/yhliu/psi4conda/lib/python2.7/site-packages/v2rdm_casscf/v2rdm_casscf.so loaded.

  Memory set to  24.000 GiB by Python script.

*** tstart() called on compute-0-0.local
*** at Tue Aug 15 00:51:57 2017


         ---------------------------------------------------------
                                   SCF
            by Justin Turney, Rob Parrish, and Andy Simmonett
                              RHF Reference
                        1 Threads,  24000 MiB Core
         ---------------------------------------------------------

  ==> Geometry <==

    Molecular point group: d2h
    Full point group: D_inf_h

    Geometry (in Angstrom), charge = 0, multiplicity = 1:

       Center              X                  Y                   Z               Mass       
    ------------   -----------------  -----------------  -----------------  -----------------
          BE         -7.000000000000    -0.000000000000     0.000000000000     9.012182201000
          BE          0.000000000000     0.000000000000     0.000000000000     9.012182201000
          BE          7.000000000000     0.000000000000     0.000000000000     9.012182201000

  Running in d2h symmetry.

  Rotational constants: A = ************  B =      0.01909  C =      0.01909 [cm^-1]
  Rotational constants: A = ************  B =    572.21753  C =    572.21753 [MHz]
  Nuclear repulsion =    3.023869763371428

  Charge       = 0
  Multiplicity = 1
  Electrons    = 12
  Nalpha       = 6
  Nbeta        = 6

  ==> Algorithm <==

  SCF Algorithm Type is PK.
  DIIS enabled.
  MOM disabled.
  Fractional occupation disabled.
  Guess Type is SAD.
  Energy threshold   = 1.00e-14
  Density threshold  = 1.00e-08
  Integral threshold = 0.00e+00

  ==> Primary Basis <==

  Basis Set: 6-31G
    Number of shells: 15
    Number of basis function: 27
    Number of Cartesian functions: 27
    Spherical Harmonics?: false
    Max angular momentum: 1

  -AO BASIS SET INFORMATION:
    Name                   = 6-31G
    Total number of shells = 15
    Number of primitives   = 42
    Number of AO           = 27
    Number of SO           = 27
    Maximum AM             = 1
    Spherical Harmonics    = FALSE

  -Contraction Scheme:
    Atom   Type   All Primitives // Shells:
   ------ ------ --------------------------
       1    BE     10s 4p // 3s 2p 
       2    BE     10s 4p // 3s 2p 
       3    BE     10s 4p // 3s 2p 

  ==> AO Basis Functions <==

    [ 6-31G ]
    cartesian
    ****
   BE   1
    S   6 1.00
                      1264.58570000           0.00194480
                       189.93681000           0.01483510
                        43.15908900           0.07209060
                        12.09866300           0.23715420
                         3.80632320           0.46919870
                         1.27289030           0.35652020
    S   3 1.00
                         3.19646310          -0.11264870
                         0.74781330          -0.22950640
                         0.21996630           1.18691670
    P   3 1.00
                         3.19646310           0.05598020
                         0.74781330           0.26155060
                         0.21996630           0.79397230
    S   1 1.00
                         0.08230990           1.00000000
    P   1 1.00
                         0.08230990           1.00000000
    ****
   BE   2
    S   6 1.00
                      1264.58570000           0.00194480
                       189.93681000           0.01483510
                        43.15908900           0.07209060
                        12.09866300           0.23715420
                         3.80632320           0.46919870
                         1.27289030           0.35652020
    S   3 1.00
                         3.19646310          -0.11264870
                         0.74781330          -0.22950640
                         0.21996630           1.18691670
    P   3 1.00
                         3.19646310           0.05598020
                         0.74781330           0.26155060
                         0.21996630           0.79397230
    S   1 1.00
                         0.08230990           1.00000000
    P   1 1.00
                         0.08230990           1.00000000
    ****

  ==> Pre-Iterations <==

   -------------------------------------------------------
    Irrep   Nso     Nmo     Nalpha   Nbeta   Ndocc  Nsocc
   -------------------------------------------------------
     Ag         8       8       0       0       0       0
     B1g        2       2       0       0       0       0
     B2g        2       2       0       0       0       0
     B3g        0       0       0       0       0       0
     Au         0       0       0       0       0       0
     B1u        4       4       0       0       0       0
     B2u        4       4       0       0       0       0
     B3u        7       7       0       0       0       0
   -------------------------------------------------------
    Total      27      27       6       6       6       0
   -------------------------------------------------------

  ==> Integral Setup <==

  Using in-core PK algorithm.
   Calculation information:
      Number of atoms:                   3
      Number of AO shells:              15
      Number of primitives:             42
      Number of atomic orbitals:        27
      Number of basis functions:        27

      Integral cutoff                 1.00e-12
      Number of threads:                 1

  Performing in-core PK
  Using 143262 doubles for integral storage.
  We computed 3521 shell quartets total.
  Whereas there are 7260 unique shell quartets.
  ==> DiskJK: Disk-Based J/K Matrices <==

    J tasked:                  Yes
    K tasked:                  Yes
    wK tasked:                  No
    Memory (MB):             17166
    Schwarz Cutoff:          1E-12

    OpenMP threads:              1
  Minimum eigenvalue in the overlap matrix is 1.2805014038E-01.
  Using Symmetric Orthogonalization.
  SCF Guess: Superposition of Atomic Densities via on-the-fly atomic UHF.

  ==> Iterations <==

                        Total Energy        Delta E     RMS |[F,P]|

   @RHF iter   0:   -43.70029236112274   -4.37003e+01   1.88395e-04 
   @RHF iter   1:   -43.70030274689189   -1.03858e-05   2.96454e-05 
   @RHF iter   2:   -43.70030308678817   -3.39896e-07   5.55322e-06 DIIS
   @RHF iter   3:   -43.70030310078985   -1.40017e-08   2.38433e-07 DIIS
   @RHF iter   4:   -43.70030310081357   -2.37250e-11   1.55283e-08 DIIS
   @RHF iter   5:   -43.70030310081366   -8.52651e-14   1.14823e-09 DIIS
   @RHF iter   6:   -43.70030310081363    2.13163e-14   7.66450e-11 DIIS
   @RHF iter   7:   -43.70030310081367   -3.55271e-14   1.55874e-11 DIIS
   @RHF iter   8:   -43.70030310081364    2.84217e-14   1.13868e-12 DIIS
   @RHF iter   9:   -43.70030310081366   -2.13163e-14   2.41044e-13 DIIS
   @RHF iter  10:   -43.70030310081366    7.10543e-15   7.79142e-15 DIIS

  ==> Post-Iterations <==

    Orbital Energies (a.u.)
    -----------------------

    Doubly Occupied:                                                      

       1Ag    -4.706907     1B3u   -4.706899     2Ag    -4.706899  
       3Ag    -0.301602     2B3u   -0.301299     4Ag    -0.300994  

    Virtual:                                                              

       3B3u    0.078480     1B2u    0.082086     1B1u    0.082086  
       5Ag     0.082419     1B1g    0.082433     1B2g    0.082433  
       2B2u    0.082778     2B1u    0.082778     4B3u    0.086334  
       6Ag     0.436170     5B3u    0.438358     7Ag     0.442130  
       6B3u    0.455495     3B2u    0.463977     3B1u    0.463977  
       2B1g    0.464927     2B2g    0.464927     4B2u    0.465878  
       4B1u    0.465878     8Ag     0.466319     7B3u    0.476663  

    Final Occupation by Irrep:
             Ag   B1g   B2g   B3g    Au   B1u   B2u   B3u 
    DOCC [     4,    0,    0,    0,    0,    0,    0,    2 ]

  Energy converged.

  @RHF Final Energy:   -43.70030310081366

   => Energetics <=

    Nuclear Repulsion Energy =              3.0238697633714278
    One-Electron Energy =                 -63.3991427030091899
    Two-Electron Energy =                  16.6749698388241043
    DFT Exchange-Correlation Energy =       0.0000000000000000
    Empirical Dispersion Energy =           0.0000000000000000
    PCM Polarization Energy =               0.0000000000000000
    EFP Energy =                            0.0000000000000000
    Total Energy =                        -43.7003031008136560


  Saving occupied orbitals to File 180.

*** tstop() called on compute-0-0.local at Tue Aug 15 00:51:57 2017
Module time:
	user time   =       0.27 seconds =       0.00 minutes
	system time =       0.01 seconds =       0.00 minutes
	total time  =          0 seconds =       0.00 minutes
Total time:
	user time   =       0.27 seconds =       0.00 minutes
	system time =       0.01 seconds =       0.00 minutes
	total time  =          0 seconds =       0.00 minutes


Properties will be evaluated at   0.000000,   0.000000,   0.000000 Bohr

Properties computed using the SCF density matrix

  Nuclear Dipole Moment: (a.u.)
     X:     0.0000      Y:     0.0000      Z:     0.0000

  Electronic Dipole Moment: (a.u.)
     X:     0.0000      Y:     0.0000      Z:     0.0000

  Dipole Moment: (a.u.)
     X:     0.0000      Y:     0.0000      Z:     0.0000     Total:     0.0000

  Dipole Moment: (Debye)
     X:     0.0000      Y:     0.0000      Z:     0.0000     Total:     0.0000

 MINTS: Wrapper to libmints.
   by Justin Turney

   Calculation information:
      Number of atoms:                   3
      Number of AO shells:              15
      Number of SO shells:              10
      Number of primitives:             42
      Number of atomic orbitals:        27
      Number of basis functions:        27

      Number of irreps:                  8
      Integral cutoff                 0.00e+00
      Number of functions per irrep: [   8    2    2    0    0    4    4    7 ]

 OEINTS: Overlap, kinetic, potential, dipole, and quadrupole integrals
         stored in file 35.

      Computing two-electron integrals...done
      Computed 11211 non-zero two-electron integrals.
        Stored in file 33.


*** tstart() called on compute-0-0.local
*** at Tue Aug 15 00:51:57 2017


	Wfn Parameters:
	--------------------
	Wavefunction         = CCSD_T
	Number of irreps     = 8
	Number of MOs        = 27
	Number of active MOs = 24
	AO-Basis             = NONE
	Semicanonical        = false
	Reference            = RHF
	Print Level          = 1

	IRREP	# MOs	# FZDC	# DOCC	# SOCC	# VIRT	# FZVR
	-----	-----	------	------	------	------	------
	 Ag	   8	    2	    2	    0	    4	    0
	 B1g	   2	    0	    0	    0	    2	    0
	 B2g	   2	    0	    0	    0	    2	    0
	 B3g	   0	    0	    0	    0	    0	    0
	 Au	   0	    0	    0	    0	    0	    0
	 B1u	   4	    0	    0	    0	    4	    0
	 B2u	   4	    0	    0	    0	    4	    0
	 B3u	   7	    1	    1	    0	    5	    0
	Transforming integrals...
	IWL integrals will be deleted.
	(OO|OO)...
	Presorting SO-basis two-electron integrals.
	Sorting File: SO Ints (nn|nn) nbuckets = 1
	Transforming the one-electron integrals and constructing Fock matrices
	Starting first half-transformation.
	Sorting half-transformed integrals.
	First half integral transformation complete.
	Starting second half-transformation.
	Two-electron integral transformation complete.
	(OO|OV)...
	Starting second half-transformation.
	Two-electron integral transformation complete.
	(OO|VV)...
	Starting second half-transformation.
	Two-electron integral transformation complete.
	(OV|OO)...
	Starting first half-transformation.
	Sorting half-transformed integrals.
	First half integral transformation complete.
	Starting second half-transformation.
	Two-electron integral transformation complete.
	(OV|OV)...
	Starting second half-transformation.
	Two-electron integral transformation complete.
	(OV|VV)...
	Starting second half-transformation.
	Two-electron integral transformation complete.
	(VV|OO)...
	Starting first half-transformation.
	Sorting half-transformed integrals.
	First half integral transformation complete.
	Starting second half-transformation.
	Two-electron integral transformation complete.
	(VV|OV)...
	Starting second half-transformation.
	Two-electron integral transformation complete.
	(VV|VV)...
	Starting second half-transformation.
	Two-electron integral transformation complete.
	Frozen core energy     =    -43.09700855491642

	Size of irrep 0 of <ab|cd> integrals:      0.007 (MW) /      0.052 (MB)
	Size of irrep 1 of <ab|cd> integrals:      0.003 (MW) /      0.025 (MB)
	Size of irrep 2 of <ab|cd> integrals:      0.003 (MW) /      0.025 (MB)
	Size of irrep 3 of <ab|cd> integrals:      0.002 (MW) /      0.013 (MB)
	Size of irrep 4 of <ab|cd> integrals:      0.001 (MW) /      0.008 (MB)
	Size of irrep 5 of <ab|cd> integrals:      0.003 (MW) /      0.022 (MB)
	Size of irrep 6 of <ab|cd> integrals:      0.003 (MW) /      0.022 (MB)
	Size of irrep 7 of <ab|cd> integrals:      0.005 (MW) /      0.041 (MB)
	Total:                                     0.026 (MW) /      0.208 (MB)

	Size of irrep 0 of <ia|bc> integrals:      0.001 (MW) /      0.008 (MB)
	Size of irrep 1 of <ia|bc> integrals:      0.000 (MW) /      0.004 (MB)
	Size of irrep 2 of <ia|bc> integrals:      0.000 (MW) /      0.004 (MB)
	Size of irrep 3 of <ia|bc> integrals:      0.000 (MW) /      0.000 (MB)
	Size of irrep 4 of <ia|bc> integrals:      0.000 (MW) /      0.000 (MB)
	Size of irrep 5 of <ia|bc> integrals:      0.001 (MW) /      0.004 (MB)
	Size of irrep 6 of <ia|bc> integrals:      0.001 (MW) /      0.004 (MB)
	Size of irrep 7 of <ia|bc> integrals:      0.001 (MW) /      0.008 (MB)
	Total:                                     0.004 (MW) /      0.032 (MB)

	Size of irrep 0 of tijab amplitudes:       0.000 (MW) /      0.003 (MB)
	Size of irrep 1 of tijab amplitudes:       0.000 (MW) /      0.000 (MB)
	Size of irrep 2 of tijab amplitudes:       0.000 (MW) /      0.000 (MB)
	Size of irrep 3 of tijab amplitudes:       0.000 (MW) /      0.000 (MB)
	Size of irrep 4 of tijab amplitudes:       0.000 (MW) /      0.000 (MB)
	Size of irrep 5 of tijab amplitudes:       0.000 (MW) /      0.000 (MB)
	Size of irrep 6 of tijab amplitudes:       0.000 (MW) /      0.000 (MB)
	Size of irrep 7 of tijab amplitudes:       0.000 (MW) /      0.002 (MB)
	Total:                                     0.001 (MW) /      0.006 (MB)

	Nuclear Rep. energy          =      3.02386976337143
	SCF energy                   =    -43.70030310081366
	One-electron energy          =     -5.44653796072621
	Two-electron energy          =      1.81937365145774
	Reference energy             =    -43.70030310081346

*** tstop() called on compute-0-0.local at Tue Aug 15 00:51:57 2017
Module time:
	user time   =       0.02 seconds =       0.00 minutes
	system time =       0.04 seconds =       0.00 minutes
	total time  =          0 seconds =       0.00 minutes
Total time:
	user time   =       0.35 seconds =       0.01 minutes
	system time =       0.05 seconds =       0.00 minutes
	total time  =          0 seconds =       0.00 minutes

*** tstart() called on compute-0-0.local
*** at Tue Aug 15 00:51:57 2017

            **************************
            *                        *
            *        CCENERGY        *
            *                        *
            **************************

    Nuclear Rep. energy (wfn)     =    3.023869763371428
    SCF energy          (wfn)     =  -43.700303100813656
    Reference energy    (file100) =  -43.700303100813464

    Input parameters:
    -----------------
    Wave function   =     CCSD_T
    Reference wfn   =     RHF
    Brueckner       =     No
    Memory (Mbytes) =     24000.0
    Maxiter         =     50
    R_Convergence   =     1.0e-07
    E_Convergence   =     1.0e-14
    Restart         =     Yes
    DIIS            =     Yes
    AO Basis        =     NONE
    ABCD            =     NEW
    Cache Level     =     2
    Cache Type      =     LOW
    Print Level     =     1
    Num. of threads =     1
    # Amps to Print =     10
    Print MP2 Amps? =     No
    Analyze T2 Amps =     No
    Print Pair Ener =     No
    Local CC        =     No
    SCS-MP2         =     False
    SCSN-MP2        =     False
    SCS-CCSD        =     False

MP2 correlation energy -0.0698752522112514
                Solving CC Amplitude Equations
                ------------------------------
  Iter             Energy              RMS        T1Diag      D1Diag    New D1Diag    D2Diag
  ----     ---------------------    ---------   ----------  ----------  ----------   --------
     0        -0.069875252211251    0.000e+00    0.000000    0.000000    0.000000    0.162146
     1        -0.103837501013525    1.462e-01    0.004412    0.006265    0.006265    0.245027
     2        -0.138346728108542    7.697e-02    0.011224    0.015961    0.015961    0.333483
     3        -0.137292736788507    5.007e-03    0.011688    0.016633    0.016633    0.332027
     4        -0.137944978567790    1.545e-03    0.011801    0.016794    0.016794    0.333717
     5        -0.137959616974289    7.566e-05    0.011790    0.016781    0.016781    0.333762
     6        -0.137955994756366    8.684e-06    0.011789    0.016779    0.016779    0.333754
     7        -0.137955732202257    3.667e-06    0.011789    0.016778    0.016778    0.333754
     8        -0.137956692857687    2.462e-06    0.011789    0.016778    0.016778    0.333756
     9        -0.137956729432558    2.787e-07    0.011789    0.016778    0.016778    0.333756
    10        -0.137956747781600    1.345e-07    0.011789    0.016778    0.016778    0.333756
    11        -0.137956748763094    3.279e-08    0.011789    0.016778    0.016778    0.333756
    12        -0.137956748915891    1.093e-08    0.011789    0.016778    0.016778    0.333756
    13        -0.137956748981184    4.443e-09    0.011789    0.016778    0.016778    0.333756
    14        -0.137956749019704    8.225e-10    0.011789    0.016778    0.016778    0.333756
    15        -0.137956749032708    3.709e-10    0.011789    0.016778    0.016778    0.333756
    16        -0.137956749035345    1.757e-10    0.011789    0.016778    0.016778    0.333756
    17        -0.137956749035742    1.026e-10    0.011789    0.016778    0.016778    0.333756
    18        -0.137956749032865    6.411e-11    0.011789    0.016778    0.016778    0.333756
    19        -0.137956749031701    2.411e-11    0.011789    0.016778    0.016778    0.333756
    20        -0.137956749031668    8.739e-12    0.011789    0.016778    0.016778    0.333756
    21        -0.137956749031899    3.740e-12    0.011789    0.016778    0.016778    0.333756
    22        -0.137956749032063    1.810e-12    0.011789    0.016778    0.016778    0.333756
    23        -0.137956749032164    8.466e-13    0.011789    0.016778    0.016778    0.333756
    24        -0.137956749032167    3.004e-13    0.011789    0.016778    0.016778    0.333756
    25        -0.137956749032156    1.424e-13    0.011789    0.016778    0.016778    0.333756

    Iterations converged.


    Largest TIA Amplitudes:
              0   1        -0.0165264321
              1   2        -0.0162549729
              2  18        -0.0161329498
              2  19        -0.0037916076
              1   3        -0.0027041302
              0   3         0.0021499630
              0   2        -0.0018726022
              2  20        -0.0018011468
              1   1         0.0014589661
              1   0        -0.0005194715

    Largest TIjAb Amplitudes:
      2   2   4   4        -0.0861720696
      2   2   6   6        -0.0861720696
      2   2   0   0        -0.0858491249
      1   1  17  17        -0.0660839937
      0   1  16  17         0.0659135365
      1   0  17  16         0.0659135365
      0   0  16  16        -0.0657481325
      0   0   8   8        -0.0653562056
      0   0  12  12        -0.0653562056
      0   1   8   9        -0.0653029198

    SCF energy       (wfn)                    =  -43.700303100813656
    Reference energy (file100)                =  -43.700303100813464

    Opposite-spin MP2 correlation energy      =   -0.069837755529712
    Same-spin MP2 correlation energy          =   -0.000037496681539
    MP2 correlation energy                    =   -0.069875252211251
      * MP2 total energy                      =  -43.770178353024718

    Opposite-spin CCSD correlation energy     =   -0.137918047937935
    Same-spin CCSD correlation energy         =   -0.000038701094221
    CCSD correlation energy                   =   -0.137956749032156
      * CCSD total energy                     =  -43.838259849845620


*** tstop() called on compute-0-0.local at Tue Aug 15 00:52:00 2017
Module time:
	user time   =       0.22 seconds =       0.00 minutes
	system time =       0.30 seconds =       0.01 minutes
	total time  =          3 seconds =       0.05 minutes
Total time:
	user time   =       0.57 seconds =       0.01 minutes
	system time =       0.35 seconds =       0.01 minutes
	total time  =          3 seconds =       0.05 minutes

*** tstart() called on compute-0-0.local
*** at Tue Aug 15 00:52:00 2017

            **************************
            *                        *
            *        CCTRIPLES       *
            *                        *
            **************************


    Wave function   =    CCSD_T
    Reference wfn   =      RHF

    Nuclear Rep. energy (wfn)                =    3.023869763371428
    SCF energy          (wfn)                =  -43.700303100813656
    Reference energy    (file100)            =  -43.700303100813464
    CCSD energy         (file100)            =   -0.137956749032156
    Total CCSD energy   (file100)            =  -43.838259849845620

    Number of ijk index combinations:               10
    Memory available in words        :      3000000000
    ~Words needed per explicit thread:             500
    Number of threads for explicit ijk threading:    1

    (T) energy                                =   -0.000003391437549
      * CCSD(T) total energy                  =  -43.838263241283173


*** tstop() called on compute-0-0.local at Tue Aug 15 00:52:00 2017
Module time:
	user time   =       0.01 seconds =       0.00 minutes
	system time =       0.01 seconds =       0.00 minutes
	total time  =          0 seconds =       0.00 minutes
Total time:
	user time   =       0.58 seconds =       0.01 minutes
	system time =       0.36 seconds =       0.01 minutes
	total time  =          3 seconds =       0.05 minutes

*** Psi4 exiting successfully. Buy a developer a beer!
