    -----------------------------------------------------------------------
          Psi4: An Open-Source Ab Initio Electronic Structure Package
                              Psi4 1.0.0 Driver

                          Git: Rev {master} 6a9a71b dirty

    J. M. Turney, A. C. Simmonett, R. M. Parrish, E. G. Hohenstein,
    F. A. Evangelista, J. T. Fermann, B. J. Mintz, L. A. Burns, J. J. Wilke,
    M. L. Abrams, N. J. Russ, M. L. Leininger, C. L. Janssen, E. T. Seidl,
    W. D. Allen, H. F. Schaefer, R. A. King, E. F. Valeev, C. D. Sherrill,
    and T. D. Crawford, WIREs Comput. Mol. Sci. 2, 556-565 (2012)
    (doi: 10.1002/wcms.93)

                         Additional Contributions by
    A. E. DePrince, U. Bozkaya, A. Yu. Sokolov, D. G. A. Smith, R. Di Remigio,
    R. M. Richard, J. F. Gonthier, H. R. McAlexander, M. Saitow, and
    B. P. Pritchard
    -----------------------------------------------------------------------


    Psi4 started on: Tue Aug 15 00:42:11 2017

    Process ID:   9237
    PSI4DATADIR: /home/yhliu/psi4conda/share/psi4
    Memory level set to 256.000 MB

  ==> Input File <==

--------------------------------------------------------------------------
memory 24 Gb
molecule be3 {
0 1
Be  -4.6    0.0 0.0
Be   0.0    0.0 0.0
Be   4.6    0.0 0.0
units angstrom    
}

set basis 6-31g
set freeze_core true
set PRINT_BASIS True
set PUREAM False
set E_CONVERGENCE 1e-14
energy('ccsd(t)')
--------------------------------------------------------------------------
/home/yhliu/psi4conda/lib/python2.7/site-packages/v2rdm_casscf/v2rdm_casscf.so loaded.

  Memory set to  24.000 GiB by Python script.

*** tstart() called on compute-0-0.local
*** at Tue Aug 15 00:42:11 2017


         ---------------------------------------------------------
                                   SCF
            by Justin Turney, Rob Parrish, and Andy Simmonett
                              RHF Reference
                        1 Threads,  24000 MiB Core
         ---------------------------------------------------------

  ==> Geometry <==

    Molecular point group: d2h
    Full point group: D_inf_h

    Geometry (in Angstrom), charge = 0, multiplicity = 1:

       Center              X                  Y                   Z               Mass       
    ------------   -----------------  -----------------  -----------------  -----------------
          BE         -4.600000000000    -0.000000000000     0.000000000000     9.012182201000
          BE          0.000000000000     0.000000000000     0.000000000000     9.012182201000
          BE          4.600000000000     0.000000000000     0.000000000000     9.012182201000

  Running in d2h symmetry.

  Rotational constants: A = ************  B =      0.04420  C =      0.04420 [cm^-1]
  Rotational constants: A = ************  B =   1325.07840  C =   1325.07840 [MHz]
  Nuclear repulsion =    4.601540944260870

  Charge       = 0
  Multiplicity = 1
  Electrons    = 12
  Nalpha       = 6
  Nbeta        = 6

  ==> Algorithm <==

  SCF Algorithm Type is PK.
  DIIS enabled.
  MOM disabled.
  Fractional occupation disabled.
  Guess Type is SAD.
  Energy threshold   = 1.00e-14
  Density threshold  = 1.00e-08
  Integral threshold = 0.00e+00

  ==> Primary Basis <==

  Basis Set: 6-31G
    Number of shells: 15
    Number of basis function: 27
    Number of Cartesian functions: 27
    Spherical Harmonics?: false
    Max angular momentum: 1

  -AO BASIS SET INFORMATION:
    Name                   = 6-31G
    Total number of shells = 15
    Number of primitives   = 42
    Number of AO           = 27
    Number of SO           = 27
    Maximum AM             = 1
    Spherical Harmonics    = FALSE

  -Contraction Scheme:
    Atom   Type   All Primitives // Shells:
   ------ ------ --------------------------
       1    BE     10s 4p // 3s 2p 
       2    BE     10s 4p // 3s 2p 
       3    BE     10s 4p // 3s 2p 

  ==> AO Basis Functions <==

    [ 6-31G ]
    cartesian
    ****
   BE   1
    S   6 1.00
                      1264.58570000           0.00194480
                       189.93681000           0.01483510
                        43.15908900           0.07209060
                        12.09866300           0.23715420
                         3.80632320           0.46919870
                         1.27289030           0.35652020
    S   3 1.00
                         3.19646310          -0.11264870
                         0.74781330          -0.22950640
                         0.21996630           1.18691670
    P   3 1.00
                         3.19646310           0.05598020
                         0.74781330           0.26155060
                         0.21996630           0.79397230
    S   1 1.00
                         0.08230990           1.00000000
    P   1 1.00
                         0.08230990           1.00000000
    ****
   BE   2
    S   6 1.00
                      1264.58570000           0.00194480
                       189.93681000           0.01483510
                        43.15908900           0.07209060
                        12.09866300           0.23715420
                         3.80632320           0.46919870
                         1.27289030           0.35652020
    S   3 1.00
                         3.19646310          -0.11264870
                         0.74781330          -0.22950640
                         0.21996630           1.18691670
    P   3 1.00
                         3.19646310           0.05598020
                         0.74781330           0.26155060
                         0.21996630           0.79397230
    S   1 1.00
                         0.08230990           1.00000000
    P   1 1.00
                         0.08230990           1.00000000
    ****

  ==> Pre-Iterations <==

   -------------------------------------------------------
    Irrep   Nso     Nmo     Nalpha   Nbeta   Ndocc  Nsocc
   -------------------------------------------------------
     Ag         8       8       0       0       0       0
     B1g        2       2       0       0       0       0
     B2g        2       2       0       0       0       0
     B3g        0       0       0       0       0       0
     Au         0       0       0       0       0       0
     B1u        4       4       0       0       0       0
     B2u        4       4       0       0       0       0
     B3u        7       7       0       0       0       0
   -------------------------------------------------------
    Total      27      27       6       6       6       0
   -------------------------------------------------------

  ==> Integral Setup <==

  Using in-core PK algorithm.
   Calculation information:
      Number of atoms:                   3
      Number of AO shells:              15
      Number of primitives:             42
      Number of atomic orbitals:        27
      Number of basis functions:        27

      Integral cutoff                 1.00e-12
      Number of threads:                 1

  Performing in-core PK
  Using 143262 doubles for integral storage.
  We computed 5621 shell quartets total.
  Whereas there are 7260 unique shell quartets.
  ==> DiskJK: Disk-Based J/K Matrices <==

    J tasked:                  Yes
    K tasked:                  Yes
    wK tasked:                  No
    Memory (MB):             17166
    Schwarz Cutoff:          1E-12

    OpenMP threads:              1
  Minimum eigenvalue in the overlap matrix is 1.0428344490E-01.
  Using Symmetric Orthogonalization.
  SCF Guess: Superposition of Atomic Densities via on-the-fly atomic UHF.

  ==> Iterations <==

                        Total Energy        Delta E     RMS |[F,P]|

   @RHF iter   0:   -43.70164314159305   -4.37016e+01   1.78896e-03 
   @RHF iter   1:   -43.70076745542526    8.75686e-04   3.98215e-04 
   @RHF iter   2:   -43.70084193318289   -7.44778e-05   1.26088e-04 DIIS
   @RHF iter   3:   -43.70085088994291   -8.95676e-06   7.60465e-06 DIIS
   @RHF iter   4:   -43.70085091303916   -2.30963e-08   7.52334e-07 DIIS
   @RHF iter   5:   -43.70085091321096   -1.71802e-10   6.25064e-08 DIIS
   @RHF iter   6:   -43.70085091321215   -1.18661e-12   4.61458e-09 DIIS
   @RHF iter   7:   -43.70085091321216   -7.10543e-15   5.13723e-10 DIIS

  ==> Post-Iterations <==

    Orbital Energies (a.u.)
    -----------------------

    Doubly Occupied:                                                      

       1Ag    -4.708162     1B3u   -4.707441     2Ag    -4.707440  
       3Ag    -0.312050     2B3u   -0.301775     4Ag    -0.290443  

    Virtual:                                                              

       3B3u    0.051152     1B2u    0.072862     1B1u    0.072862  
       1B1g    0.082312     1B2g    0.082312     5Ag     0.085642  
       2B2u    0.092115     2B1u    0.092115     4B3u    0.130857  
       6Ag     0.404129     5B3u    0.425819     3B2u    0.448564  
       3B1u    0.448564     7Ag     0.453418     6B3u    0.463035  
       2B1g    0.464599     2B2g    0.464599     4B2u    0.484865  
       4B1u    0.484865     8Ag     0.541556     7B3u    0.598367  

    Final Occupation by Irrep:
             Ag   B1g   B2g   B3g    Au   B1u   B2u   B3u 
    DOCC [     4,    0,    0,    0,    0,    0,    0,    2 ]

  Energy converged.

  @RHF Final Energy:   -43.70085091321216

   => Energetics <=

    Nuclear Repulsion Energy =              4.6015409442608703
    One-Electron Energy =                 -66.5501611431905076
    Two-Electron Energy =                  18.2477692857174851
    DFT Exchange-Correlation Energy =       0.0000000000000000
    Empirical Dispersion Energy =           0.0000000000000000
    PCM Polarization Energy =               0.0000000000000000
    EFP Energy =                            0.0000000000000000
    Total Energy =                        -43.7008509132121503


  Saving occupied orbitals to File 180.

*** tstop() called on compute-0-0.local at Tue Aug 15 00:42:12 2017
Module time:
	user time   =       0.29 seconds =       0.00 minutes
	system time =       0.01 seconds =       0.00 minutes
	total time  =          1 seconds =       0.02 minutes
Total time:
	user time   =       0.29 seconds =       0.00 minutes
	system time =       0.01 seconds =       0.00 minutes
	total time  =          1 seconds =       0.02 minutes


Properties will be evaluated at   0.000000,   0.000000,   0.000000 Bohr

Properties computed using the SCF density matrix

  Nuclear Dipole Moment: (a.u.)
     X:     0.0000      Y:     0.0000      Z:     0.0000

  Electronic Dipole Moment: (a.u.)
     X:     0.0000      Y:     0.0000      Z:     0.0000

  Dipole Moment: (a.u.)
     X:     0.0000      Y:     0.0000      Z:     0.0000     Total:     0.0000

  Dipole Moment: (Debye)
     X:     0.0000      Y:     0.0000      Z:     0.0000     Total:     0.0000

 MINTS: Wrapper to libmints.
   by Justin Turney

   Calculation information:
      Number of atoms:                   3
      Number of AO shells:              15
      Number of SO shells:              10
      Number of primitives:             42
      Number of atomic orbitals:        27
      Number of basis functions:        27

      Number of irreps:                  8
      Integral cutoff                 0.00e+00
      Number of functions per irrep: [   8    2    2    0    0    4    4    7 ]

 OEINTS: Overlap, kinetic, potential, dipole, and quadrupole integrals
         stored in file 35.

      Computing two-electron integrals...done
      Computed 11211 non-zero two-electron integrals.
        Stored in file 33.


*** tstart() called on compute-0-0.local
*** at Tue Aug 15 00:42:12 2017


	Wfn Parameters:
	--------------------
	Wavefunction         = CCSD_T
	Number of irreps     = 8
	Number of MOs        = 27
	Number of active MOs = 24
	AO-Basis             = NONE
	Semicanonical        = false
	Reference            = RHF
	Print Level          = 1

	IRREP	# MOs	# FZDC	# DOCC	# SOCC	# VIRT	# FZVR
	-----	-----	------	------	------	------	------
	 Ag	   8	    2	    2	    0	    4	    0
	 B1g	   2	    0	    0	    0	    2	    0
	 B2g	   2	    0	    0	    0	    2	    0
	 B3g	   0	    0	    0	    0	    0	    0
	 Au	   0	    0	    0	    0	    0	    0
	 B1u	   4	    0	    0	    0	    4	    0
	 B2u	   4	    0	    0	    0	    4	    0
	 B3u	   7	    1	    1	    0	    5	    0
	Transforming integrals...
	IWL integrals will be deleted.
	(OO|OO)...
	Presorting SO-basis two-electron integrals.
	Sorting File: SO Ints (nn|nn) nbuckets = 1
	Transforming the one-electron integrals and constructing Fock matrices
	Starting first half-transformation.
	Sorting half-transformed integrals.
	First half integral transformation complete.
	Starting second half-transformation.
	Two-electron integral transformation complete.
	(OO|OV)...
	Starting second half-transformation.
	Two-electron integral transformation complete.
	(OO|VV)...
	Starting second half-transformation.
	Two-electron integral transformation complete.
	(OV|OO)...
	Starting first half-transformation.
	Sorting half-transformed integrals.
	First half integral transformation complete.
	Starting second half-transformation.
	Two-electron integral transformation complete.
	(OV|OV)...
	Starting second half-transformation.
	Two-electron integral transformation complete.
	(OV|VV)...
	Starting second half-transformation.
	Two-electron integral transformation complete.
	(VV|OO)...
	Starting first half-transformation.
	Sorting half-transformed integrals.
	First half integral transformation complete.
	Starting second half-transformation.
	Two-electron integral transformation complete.
	(VV|OV)...
	Starting second half-transformation.
	Two-electron integral transformation complete.
	(VV|VV)...
	Starting second half-transformation.
	Two-electron integral transformation complete.
	Frozen core energy     =    -44.28026797256248

	Size of irrep 0 of <ab|cd> integrals:      0.007 (MW) /      0.052 (MB)
	Size of irrep 1 of <ab|cd> integrals:      0.003 (MW) /      0.025 (MB)
	Size of irrep 2 of <ab|cd> integrals:      0.003 (MW) /      0.025 (MB)
	Size of irrep 3 of <ab|cd> integrals:      0.002 (MW) /      0.013 (MB)
	Size of irrep 4 of <ab|cd> integrals:      0.001 (MW) /      0.008 (MB)
	Size of irrep 5 of <ab|cd> integrals:      0.003 (MW) /      0.022 (MB)
	Size of irrep 6 of <ab|cd> integrals:      0.003 (MW) /      0.022 (MB)
	Size of irrep 7 of <ab|cd> integrals:      0.005 (MW) /      0.041 (MB)
	Total:                                     0.026 (MW) /      0.208 (MB)

	Size of irrep 0 of <ia|bc> integrals:      0.001 (MW) /      0.008 (MB)
	Size of irrep 1 of <ia|bc> integrals:      0.000 (MW) /      0.004 (MB)
	Size of irrep 2 of <ia|bc> integrals:      0.000 (MW) /      0.004 (MB)
	Size of irrep 3 of <ia|bc> integrals:      0.000 (MW) /      0.000 (MB)
	Size of irrep 4 of <ia|bc> integrals:      0.000 (MW) /      0.000 (MB)
	Size of irrep 5 of <ia|bc> integrals:      0.001 (MW) /      0.004 (MB)
	Size of irrep 6 of <ia|bc> integrals:      0.001 (MW) /      0.004 (MB)
	Size of irrep 7 of <ia|bc> integrals:      0.001 (MW) /      0.008 (MB)
	Total:                                     0.004 (MW) /      0.032 (MB)

	Size of irrep 0 of tijab amplitudes:       0.000 (MW) /      0.003 (MB)
	Size of irrep 1 of tijab amplitudes:       0.000 (MW) /      0.000 (MB)
	Size of irrep 2 of tijab amplitudes:       0.000 (MW) /      0.000 (MB)
	Size of irrep 3 of tijab amplitudes:       0.000 (MW) /      0.000 (MB)
	Size of irrep 4 of tijab amplitudes:       0.000 (MW) /      0.000 (MB)
	Size of irrep 5 of tijab amplitudes:       0.000 (MW) /      0.000 (MB)
	Size of irrep 6 of tijab amplitudes:       0.000 (MW) /      0.000 (MB)
	Size of irrep 7 of tijab amplitudes:       0.000 (MW) /      0.002 (MB)
	Total:                                     0.001 (MW) /      0.006 (MB)

	Nuclear Rep. energy          =      4.60154094426087
	SCF energy                   =    -43.70085091321216
	One-electron energy          =     -6.23571117970229
	Two-electron energy          =      2.21358729479169
	Reference energy             =    -43.70085091321221

*** tstop() called on compute-0-0.local at Tue Aug 15 00:42:12 2017
Module time:
	user time   =       0.04 seconds =       0.00 minutes
	system time =       0.03 seconds =       0.00 minutes
	total time  =          0 seconds =       0.00 minutes
Total time:
	user time   =       0.41 seconds =       0.01 minutes
	system time =       0.04 seconds =       0.00 minutes
	total time  =          1 seconds =       0.02 minutes

*** tstart() called on compute-0-0.local
*** at Tue Aug 15 00:42:12 2017

            **************************
            *                        *
            *        CCENERGY        *
            *                        *
            **************************

    Nuclear Rep. energy (wfn)     =    4.601540944260870
    SCF energy          (wfn)     =  -43.700850913212157
    Reference energy    (file100) =  -43.700850913212207

    Input parameters:
    -----------------
    Wave function   =     CCSD_T
    Reference wfn   =     RHF
    Brueckner       =     No
    Memory (Mbytes) =     24000.0
    Maxiter         =     50
    R_Convergence   =     1.0e-07
    E_Convergence   =     1.0e-14
    Restart         =     Yes
    DIIS            =     Yes
    AO Basis        =     NONE
    ABCD            =     NEW
    Cache Level     =     2
    Cache Type      =     LOW
    Print Level     =     1
    Num. of threads =     1
    # Amps to Print =     10
    Print MP2 Amps? =     No
    Analyze T2 Amps =     No
    Print Pair Ener =     No
    Local CC        =     No
    SCS-MP2         =     False
    SCSN-MP2        =     False
    SCS-CCSD        =     False

MP2 correlation energy -0.0705992246305684
                Solving CC Amplitude Equations
                ------------------------------
  Iter             Energy              RMS        T1Diag      D1Diag    New D1Diag    D2Diag
  ----     ---------------------    ---------   ----------  ----------  ----------   --------
     0        -0.070599224630568    0.000e+00    0.000000    0.000000    0.000000    0.165521
     1        -0.104402690676039    1.450e-01    0.004489    0.006609    0.006609    0.249228
     2        -0.137968565853765    7.603e-02    0.011822    0.017563    0.017563    0.337125
     3        -0.137159031482593    6.064e-03    0.012736    0.018988    0.018988    0.336399
     4        -0.137825604476034    1.825e-03    0.012951    0.019344    0.019344    0.338176
     5        -0.137963098091269    3.156e-04    0.013008    0.019465    0.019465    0.338530
     6        -0.137864945264693    2.407e-04    0.012986    0.019436    0.019436    0.338270
     7        -0.137855606674628    2.262e-05    0.012984    0.019435    0.019435    0.338246
     8        -0.137859491369210    1.521e-05    0.012985    0.019437    0.019437    0.338257
     9        -0.137860942884288    4.725e-06    0.012986    0.019438    0.019438    0.338261
    10        -0.137860887035367    2.177e-06    0.012986    0.019438    0.019438    0.338261
    11        -0.137860851644230    1.339e-06    0.012985    0.019438    0.019438    0.338261
    12        -0.137860858839304    4.439e-07    0.012985    0.019438    0.019438    0.338261
    13        -0.137860865797020    2.032e-07    0.012985    0.019438    0.019438    0.338261
    14        -0.137860866281796    7.737e-08    0.012985    0.019438    0.019438    0.338261
    15        -0.137860865889270    3.598e-08    0.012985    0.019438    0.019438    0.338261
    16        -0.137860865166343    1.754e-08    0.012985    0.019438    0.019438    0.338261
    17        -0.137860864961065    4.506e-09    0.012985    0.019438    0.019438    0.338261
    18        -0.137860864932293    1.661e-09    0.012985    0.019438    0.019438    0.338261
    19        -0.137860864951256    7.539e-10    0.012985    0.019438    0.019438    0.338261
    20        -0.137860864973516    3.599e-10    0.012985    0.019438    0.019438    0.338261
    21        -0.137860864992499    2.043e-10    0.012985    0.019438    0.019438    0.338261
    22        -0.137860864996395    1.144e-10    0.012985    0.019438    0.019438    0.338261
    23        -0.137860864993438    6.370e-11    0.012985    0.019438    0.019438    0.338261
    24        -0.137860864991456    3.089e-11    0.012985    0.019438    0.019438    0.338261
    25        -0.137860864990573    1.447e-11    0.012985    0.019438    0.019438    0.338261
    26        -0.137860864990492    7.464e-12    0.012985    0.019438    0.019438    0.338261
    27        -0.137860864990651    3.762e-12    0.012985    0.019438    0.019438    0.338261
    28        -0.137860864990789    1.738e-12    0.012985    0.019438    0.019438    0.338261
    29        -0.137860864990849    8.560e-13    0.012985    0.019438    0.019438    0.338261
    30        -0.137860864990853    4.641e-13    0.012985    0.019438    0.019438    0.338261
    31        -0.137860864990840    2.497e-13    0.012985    0.019438    0.019438    0.338261

    Iterations converged.


    Largest TIA Amplitudes:
              0   1         0.0167739526
              2  18         0.0140781728
              1   2        -0.0104158168
              1   3        -0.0095257434
              1   0         0.0090617892
              2  17         0.0083505238
              2  16         0.0077875007
              0   0        -0.0072131645
              2  19        -0.0051204312
              2  20        -0.0046128658

    Largest TIjAb Amplitudes:
      2   2   4   4        -0.0857890516
      2   2   6   6        -0.0857890516
      2   2   0   0        -0.0840972859
      0   0  16  16        -0.0731169679
      0   1  16  17         0.0692362676
      1   0  17  16         0.0692362676
      1   1   9   9        -0.0686418232
      1   1  13  13        -0.0686418232
      0   1   8   9        -0.0668440961
      0   1  12  13        -0.0668440961

    SCF energy       (wfn)                    =  -43.700850913212157
    Reference energy (file100)                =  -43.700850913212207

    Opposite-spin MP2 correlation energy      =   -0.070084760881539
    Same-spin MP2 correlation energy          =   -0.000514463749030
    MP2 correlation energy                    =   -0.070599224630568
      * MP2 total energy                      =  -43.771450137842777

    Opposite-spin CCSD correlation energy     =   -0.137314538878568
    Same-spin CCSD correlation energy         =   -0.000546326118688
    CCSD correlation energy                   =   -0.137860864990840
      * CCSD total energy                     =  -43.838711778203049


*** tstop() called on compute-0-0.local at Tue Aug 15 00:42:26 2017
Module time:
	user time   =       0.31 seconds =       0.01 minutes
	system time =       0.36 seconds =       0.01 minutes
	total time  =         14 seconds =       0.23 minutes
Total time:
	user time   =       0.72 seconds =       0.01 minutes
	system time =       0.40 seconds =       0.01 minutes
	total time  =         15 seconds =       0.25 minutes

*** tstart() called on compute-0-0.local
*** at Tue Aug 15 00:42:26 2017

            **************************
            *                        *
            *        CCTRIPLES       *
            *                        *
            **************************


    Wave function   =    CCSD_T
    Reference wfn   =      RHF

    Nuclear Rep. energy (wfn)                =    4.601540944260870
    SCF energy          (wfn)                =  -43.700850913212157
    Reference energy    (file100)            =  -43.700850913212207
    CCSD energy         (file100)            =   -0.137860864990840
    Total CCSD energy   (file100)            =  -43.838711778203049

    Number of ijk index combinations:               10
    Memory available in words        :      3000000000
    ~Words needed per explicit thread:             500
    Number of threads for explicit ijk threading:    1

    (T) energy                                =   -0.000106661252331
      * CCSD(T) total energy                  =  -43.838818439455380


*** tstop() called on compute-0-0.local at Tue Aug 15 00:42:26 2017
Module time:
	user time   =       0.01 seconds =       0.00 minutes
	system time =       0.01 seconds =       0.00 minutes
	total time  =          0 seconds =       0.00 minutes
Total time:
	user time   =       0.73 seconds =       0.01 minutes
	system time =       0.41 seconds =       0.01 minutes
	total time  =         15 seconds =       0.25 minutes

*** Psi4 exiting successfully. Buy a developer a beer!
