    -----------------------------------------------------------------------
          Psi4: An Open-Source Ab Initio Electronic Structure Package
                              Psi4 1.0.0 Driver

                          Git: Rev {master} 6a9a71b dirty

    J. M. Turney, A. C. Simmonett, R. M. Parrish, E. G. Hohenstein,
    F. A. Evangelista, J. T. Fermann, B. J. Mintz, L. A. Burns, J. J. Wilke,
    M. L. Abrams, N. J. Russ, M. L. Leininger, C. L. Janssen, E. T. Seidl,
    W. D. Allen, H. F. Schaefer, R. A. King, E. F. Valeev, C. D. Sherrill,
    and T. D. Crawford, WIREs Comput. Mol. Sci. 2, 556-565 (2012)
    (doi: 10.1002/wcms.93)

                         Additional Contributions by
    A. E. DePrince, U. Bozkaya, A. Yu. Sokolov, D. G. A. Smith, R. Di Remigio,
    R. M. Richard, J. F. Gonthier, H. R. McAlexander, M. Saitow, and
    B. P. Pritchard
    -----------------------------------------------------------------------


    Psi4 started on: Tue Aug 15 00:45:39 2017

    Process ID:   9490
    PSI4DATADIR: /home/yhliu/psi4conda/share/psi4
    Memory level set to 256.000 MB

  ==> Input File <==

--------------------------------------------------------------------------
memory 24 Gb
molecule be3 {
0 1
Be  -5.8    0.0 0.0
Be   0.0    0.0 0.0
Be   5.8    0.0 0.0
units angstrom    
}

set basis 6-31g
set freeze_core true
set PRINT_BASIS True
set PUREAM False
set E_CONVERGENCE 1e-14
energy('ccsd(t)')
--------------------------------------------------------------------------
/home/yhliu/psi4conda/lib/python2.7/site-packages/v2rdm_casscf/v2rdm_casscf.so loaded.

  Memory set to  24.000 GiB by Python script.

*** tstart() called on compute-0-0.local
*** at Tue Aug 15 00:45:40 2017


         ---------------------------------------------------------
                                   SCF
            by Justin Turney, Rob Parrish, and Andy Simmonett
                              RHF Reference
                        1 Threads,  24000 MiB Core
         ---------------------------------------------------------

  ==> Geometry <==

    Molecular point group: d2h
    Full point group: D_inf_h

    Geometry (in Angstrom), charge = 0, multiplicity = 1:

       Center              X                  Y                   Z               Mass       
    ------------   -----------------  -----------------  -----------------  -----------------
          BE         -5.800000000000    -0.000000000000     0.000000000000     9.012182201000
          BE          0.000000000000     0.000000000000     0.000000000000     9.012182201000
          BE          5.800000000000     0.000000000000     0.000000000000     9.012182201000

  Running in d2h symmetry.

  Rotational constants: A = ************  B =      0.02780  C =      0.02780 [cm^-1]
  Rotational constants: A = ************  B =    833.49164  C =    833.49164 [MHz]
  Nuclear repulsion =    3.649497990275864

  Charge       = 0
  Multiplicity = 1
  Electrons    = 12
  Nalpha       = 6
  Nbeta        = 6

  ==> Algorithm <==

  SCF Algorithm Type is PK.
  DIIS enabled.
  MOM disabled.
  Fractional occupation disabled.
  Guess Type is SAD.
  Energy threshold   = 1.00e-14
  Density threshold  = 1.00e-08
  Integral threshold = 0.00e+00

  ==> Primary Basis <==

  Basis Set: 6-31G
    Number of shells: 15
    Number of basis function: 27
    Number of Cartesian functions: 27
    Spherical Harmonics?: false
    Max angular momentum: 1

  -AO BASIS SET INFORMATION:
    Name                   = 6-31G
    Total number of shells = 15
    Number of primitives   = 42
    Number of AO           = 27
    Number of SO           = 27
    Maximum AM             = 1
    Spherical Harmonics    = FALSE

  -Contraction Scheme:
    Atom   Type   All Primitives // Shells:
   ------ ------ --------------------------
       1    BE     10s 4p // 3s 2p 
       2    BE     10s 4p // 3s 2p 
       3    BE     10s 4p // 3s 2p 

  ==> AO Basis Functions <==

    [ 6-31G ]
    cartesian
    ****
   BE   1
    S   6 1.00
                      1264.58570000           0.00194480
                       189.93681000           0.01483510
                        43.15908900           0.07209060
                        12.09866300           0.23715420
                         3.80632320           0.46919870
                         1.27289030           0.35652020
    S   3 1.00
                         3.19646310          -0.11264870
                         0.74781330          -0.22950640
                         0.21996630           1.18691670
    P   3 1.00
                         3.19646310           0.05598020
                         0.74781330           0.26155060
                         0.21996630           0.79397230
    S   1 1.00
                         0.08230990           1.00000000
    P   1 1.00
                         0.08230990           1.00000000
    ****
   BE   2
    S   6 1.00
                      1264.58570000           0.00194480
                       189.93681000           0.01483510
                        43.15908900           0.07209060
                        12.09866300           0.23715420
                         3.80632320           0.46919870
                         1.27289030           0.35652020
    S   3 1.00
                         3.19646310          -0.11264870
                         0.74781330          -0.22950640
                         0.21996630           1.18691670
    P   3 1.00
                         3.19646310           0.05598020
                         0.74781330           0.26155060
                         0.21996630           0.79397230
    S   1 1.00
                         0.08230990           1.00000000
    P   1 1.00
                         0.08230990           1.00000000
    ****

  ==> Pre-Iterations <==

   -------------------------------------------------------
    Irrep   Nso     Nmo     Nalpha   Nbeta   Ndocc  Nsocc
   -------------------------------------------------------
     Ag         8       8       0       0       0       0
     B1g        2       2       0       0       0       0
     B2g        2       2       0       0       0       0
     B3g        0       0       0       0       0       0
     Au         0       0       0       0       0       0
     B1u        4       4       0       0       0       0
     B2u        4       4       0       0       0       0
     B3u        7       7       0       0       0       0
   -------------------------------------------------------
    Total      27      27       6       6       6       0
   -------------------------------------------------------

  ==> Integral Setup <==

  Using in-core PK algorithm.
   Calculation information:
      Number of atoms:                   3
      Number of AO shells:              15
      Number of primitives:             42
      Number of atomic orbitals:        27
      Number of basis functions:        27

      Integral cutoff                 1.00e-12
      Number of threads:                 1

  Performing in-core PK
  Using 143262 doubles for integral storage.
  We computed 4469 shell quartets total.
  Whereas there are 7260 unique shell quartets.
  ==> DiskJK: Disk-Based J/K Matrices <==

    J tasked:                  Yes
    K tasked:                  Yes
    wK tasked:                  No
    Memory (MB):             17166
    Schwarz Cutoff:          1E-12

    OpenMP threads:              1
  Minimum eigenvalue in the overlap matrix is 1.2403087464E-01.
  Using Symmetric Orthogonalization.
  SCF Guess: Superposition of Atomic Densities via on-the-fly atomic UHF.

  ==> Iterations <==

                        Total Energy        Delta E     RMS |[F,P]|

   @RHF iter   0:   -43.70031973793871   -4.37003e+01   7.54431e-04 
   @RHF iter   1:   -43.70045963310486   -1.39895e-04   1.49366e-04 
   @RHF iter   2:   -43.70046894247016   -9.30937e-06   3.58044e-05 DIIS
   @RHF iter   3:   -43.70046957460968   -6.32140e-07   1.93072e-06 DIIS
   @RHF iter   4:   -43.70046957614528   -1.53560e-09   1.99246e-07 DIIS
   @RHF iter   5:   -43.70046957615845   -1.31735e-11   8.61047e-09 DIIS
   @RHF iter   6:   -43.70046957615848   -2.84217e-14   1.00466e-09 DIIS
   @RHF iter   7:   -43.70046957615851   -2.84217e-14   1.34535e-10 DIIS
   @RHF iter   8:   -43.70046957615848    3.55271e-14   1.36794e-11 DIIS
   @RHF iter   9:   -43.70046957615847    7.10543e-15   1.01650e-12 DIIS

  ==> Post-Iterations <==

    Orbital Energies (a.u.)
    -----------------------

    Doubly Occupied:                                                      

       1Ag    -4.707192     1B3u   -4.707044     2Ag    -4.707044  
       3Ag    -0.303465     2B3u   -0.301362     4Ag    -0.299192  

    Virtual:                                                              

       3B3u    0.066703     1B2u    0.080108     1B1u    0.080108  
       5Ag     0.082321     1B2g    0.082396     1B1g    0.082396  
       2B2u    0.084655     2B1u    0.084655     4B3u    0.098863  
       6Ag     0.416833     5B3u    0.419884     7Ag     0.446737  
       6B3u    0.450223     3B2u    0.459055     3B1u    0.459055  
       2B2g    0.464856     2B1g    0.464856     4B2u    0.470859  
       4B1u    0.470859     8Ag     0.486911     7B3u    0.518867  

    Final Occupation by Irrep:
             Ag   B1g   B2g   B3g    Au   B1u   B2u   B3u 
    DOCC [     4,    0,    0,    0,    0,    0,    0,    2 ]

  Energy converged.

  @RHF Final Energy:   -43.70046957615847

   => Energetics <=

    Nuclear Repulsion Energy =              3.6494979902758637
    One-Electron Energy =                 -64.6493357994382052
    Two-Electron Energy =                  17.2993682330038716
    DFT Exchange-Correlation Energy =       0.0000000000000000
    Empirical Dispersion Energy =           0.0000000000000000
    PCM Polarization Energy =               0.0000000000000000
    EFP Energy =                            0.0000000000000000
    Total Energy =                        -43.7004695761584685


  Saving occupied orbitals to File 180.

*** tstop() called on compute-0-0.local at Tue Aug 15 00:45:40 2017
Module time:
	user time   =       0.21 seconds =       0.00 minutes
	system time =       0.00 seconds =       0.00 minutes
	total time  =          0 seconds =       0.00 minutes
Total time:
	user time   =       0.21 seconds =       0.00 minutes
	system time =       0.00 seconds =       0.00 minutes
	total time  =          0 seconds =       0.00 minutes


Properties will be evaluated at   0.000000,   0.000000,   0.000000 Bohr

Properties computed using the SCF density matrix

  Nuclear Dipole Moment: (a.u.)
     X:     0.0000      Y:     0.0000      Z:     0.0000

  Electronic Dipole Moment: (a.u.)
     X:     0.0000      Y:     0.0000      Z:     0.0000

  Dipole Moment: (a.u.)
     X:     0.0000      Y:     0.0000      Z:     0.0000     Total:     0.0000

  Dipole Moment: (Debye)
     X:     0.0000      Y:     0.0000      Z:     0.0000     Total:     0.0000

 MINTS: Wrapper to libmints.
   by Justin Turney

   Calculation information:
      Number of atoms:                   3
      Number of AO shells:              15
      Number of SO shells:              10
      Number of primitives:             42
      Number of atomic orbitals:        27
      Number of basis functions:        27

      Number of irreps:                  8
      Integral cutoff                 0.00e+00
      Number of functions per irrep: [   8    2    2    0    0    4    4    7 ]

 OEINTS: Overlap, kinetic, potential, dipole, and quadrupole integrals
         stored in file 35.

      Computing two-electron integrals...done
      Computed 11211 non-zero two-electron integrals.
        Stored in file 33.


*** tstart() called on compute-0-0.local
*** at Tue Aug 15 00:45:40 2017


	Wfn Parameters:
	--------------------
	Wavefunction         = CCSD_T
	Number of irreps     = 8
	Number of MOs        = 27
	Number of active MOs = 24
	AO-Basis             = NONE
	Semicanonical        = false
	Reference            = RHF
	Print Level          = 1

	IRREP	# MOs	# FZDC	# DOCC	# SOCC	# VIRT	# FZVR
	-----	-----	------	------	------	------	------
	 Ag	   8	    2	    2	    0	    4	    0
	 B1g	   2	    0	    0	    0	    2	    0
	 B2g	   2	    0	    0	    0	    2	    0
	 B3g	   0	    0	    0	    0	    0	    0
	 Au	   0	    0	    0	    0	    0	    0
	 B1u	   4	    0	    0	    0	    4	    0
	 B2u	   4	    0	    0	    0	    4	    0
	 B3u	   7	    1	    1	    0	    5	    0
	Transforming integrals...
	IWL integrals will be deleted.
	(OO|OO)...
	Presorting SO-basis two-electron integrals.
	Sorting File: SO Ints (nn|nn) nbuckets = 1
	Transforming the one-electron integrals and constructing Fock matrices
	Starting first half-transformation.
	Sorting half-transformed integrals.
	First half integral transformation complete.
	Starting second half-transformation.
	Two-electron integral transformation complete.
	(OO|OV)...
	Starting second half-transformation.
	Two-electron integral transformation complete.
	(OO|VV)...
	Starting second half-transformation.
	Two-electron integral transformation complete.
	(OV|OO)...
	Starting first half-transformation.
	Sorting half-transformed integrals.
	First half integral transformation complete.
	Starting second half-transformation.
	Two-electron integral transformation complete.
	(OV|OV)...
	Starting second half-transformation.
	Two-electron integral transformation complete.
	(OV|VV)...
	Starting second half-transformation.
	Two-electron integral transformation complete.
	(VV|OO)...
	Starting first half-transformation.
	Sorting half-transformed integrals.
	First half integral transformation complete.
	Starting second half-transformation.
	Two-electron integral transformation complete.
	(VV|OV)...
	Starting second half-transformation.
	Two-electron integral transformation complete.
	(VV|VV)...
	Starting second half-transformation.
	Two-electron integral transformation complete.
	Frozen core energy     =    -43.56623027230327

	Size of irrep 0 of <ab|cd> integrals:      0.007 (MW) /      0.052 (MB)
	Size of irrep 1 of <ab|cd> integrals:      0.003 (MW) /      0.025 (MB)
	Size of irrep 2 of <ab|cd> integrals:      0.003 (MW) /      0.025 (MB)
	Size of irrep 3 of <ab|cd> integrals:      0.002 (MW) /      0.013 (MB)
	Size of irrep 4 of <ab|cd> integrals:      0.001 (MW) /      0.008 (MB)
	Size of irrep 5 of <ab|cd> integrals:      0.003 (MW) /      0.022 (MB)
	Size of irrep 6 of <ab|cd> integrals:      0.003 (MW) /      0.022 (MB)
	Size of irrep 7 of <ab|cd> integrals:      0.005 (MW) /      0.041 (MB)
	Total:                                     0.026 (MW) /      0.208 (MB)

	Size of irrep 0 of <ia|bc> integrals:      0.001 (MW) /      0.008 (MB)
	Size of irrep 1 of <ia|bc> integrals:      0.000 (MW) /      0.004 (MB)
	Size of irrep 2 of <ia|bc> integrals:      0.000 (MW) /      0.004 (MB)
	Size of irrep 3 of <ia|bc> integrals:      0.000 (MW) /      0.000 (MB)
	Size of irrep 4 of <ia|bc> integrals:      0.000 (MW) /      0.000 (MB)
	Size of irrep 5 of <ia|bc> integrals:      0.001 (MW) /      0.004 (MB)
	Size of irrep 6 of <ia|bc> integrals:      0.001 (MW) /      0.004 (MB)
	Size of irrep 7 of <ia|bc> integrals:      0.001 (MW) /      0.008 (MB)
	Total:                                     0.004 (MW) /      0.032 (MB)

	Size of irrep 0 of tijab amplitudes:       0.000 (MW) /      0.003 (MB)
	Size of irrep 1 of tijab amplitudes:       0.000 (MW) /      0.000 (MB)
	Size of irrep 2 of tijab amplitudes:       0.000 (MW) /      0.000 (MB)
	Size of irrep 3 of tijab amplitudes:       0.000 (MW) /      0.000 (MB)
	Size of irrep 4 of tijab amplitudes:       0.000 (MW) /      0.000 (MB)
	Size of irrep 5 of tijab amplitudes:       0.000 (MW) /      0.000 (MB)
	Size of irrep 6 of tijab amplitudes:       0.000 (MW) /      0.000 (MB)
	Size of irrep 7 of tijab amplitudes:       0.000 (MW) /      0.002 (MB)
	Total:                                     0.001 (MW) /      0.006 (MB)

	Nuclear Rep. energy          =      3.64949799027586
	SCF energy                   =    -43.70046957615847
	One-electron energy          =     -5.75943620805324
	Two-electron energy          =      1.97569891392215
	Reference energy             =    -43.70046957615849

*** tstop() called on compute-0-0.local at Tue Aug 15 00:45:41 2017
Module time:
	user time   =       0.03 seconds =       0.00 minutes
	system time =       0.02 seconds =       0.00 minutes
	total time  =          1 seconds =       0.02 minutes
Total time:
	user time   =       0.30 seconds =       0.01 minutes
	system time =       0.03 seconds =       0.00 minutes
	total time  =          1 seconds =       0.02 minutes

*** tstart() called on compute-0-0.local
*** at Tue Aug 15 00:45:41 2017

            **************************
            *                        *
            *        CCENERGY        *
            *                        *
            **************************

    Nuclear Rep. energy (wfn)     =    3.649497990275864
    SCF energy          (wfn)     =  -43.700469576158468
    Reference energy    (file100) =  -43.700469576158490

    Input parameters:
    -----------------
    Wave function   =     CCSD_T
    Reference wfn   =     RHF
    Brueckner       =     No
    Memory (Mbytes) =     24000.0
    Maxiter         =     50
    R_Convergence   =     1.0e-07
    E_Convergence   =     1.0e-14
    Restart         =     Yes
    DIIS            =     Yes
    AO Basis        =     NONE
    ABCD            =     NEW
    Cache Level     =     2
    Cache Type      =     LOW
    Print Level     =     1
    Num. of threads =     1
    # Amps to Print =     10
    Print MP2 Amps? =     No
    Analyze T2 Amps =     No
    Print Pair Ener =     No
    Local CC        =     No
    SCS-MP2         =     False
    SCSN-MP2        =     False
    SCS-CCSD        =     False

MP2 correlation energy -0.0700158205219318
                Solving CC Amplitude Equations
                ------------------------------
  Iter             Energy              RMS        T1Diag      D1Diag    New D1Diag    D2Diag
  ----     ---------------------    ---------   ----------  ----------  ----------   --------
     0        -0.070015820521932    0.000e+00    0.000000    0.000000    0.000000    0.162837
     1        -0.103959553036586    1.460e-01    0.004416    0.006354    0.006354    0.245899
     2        -0.138304870690317    7.680e-02    0.011273    0.016394    0.016394    0.334241
     3        -0.137292180815861    5.175e-03    0.011792    0.017236    0.017236    0.332885
     4        -0.138012449908085    1.582e-03    0.011926    0.017442    0.017442    0.334758
     5        -0.137990228315023    1.496e-04    0.011914    0.017429    0.017429    0.334705
     6        -0.137963511996963    7.026e-05    0.011907    0.017419    0.017419    0.334637
     7        -0.137961832101418    6.828e-06    0.011906    0.017418    0.017418    0.334634
     8        -0.137962931699404    4.208e-06    0.011906    0.017418    0.017418    0.334637
     9        -0.137963240290378    1.287e-06    0.011906    0.017418    0.017418    0.334638
    10        -0.137963337222540    4.522e-07    0.011906    0.017418    0.017418    0.334639
    11        -0.137963335139309    1.686e-07    0.011906    0.017418    0.017418    0.334639
    12        -0.137963337877569    7.302e-08    0.011906    0.017418    0.017418    0.334639
    13        -0.137963338378983    3.691e-08    0.011906    0.017418    0.017418    0.334639
    14        -0.137963339043210    2.329e-08    0.011906    0.017418    0.017418    0.334639
    15        -0.137963338810012    1.022e-08    0.011906    0.017418    0.017418    0.334639
    16        -0.137963338696073    4.216e-09    0.011906    0.017418    0.017418    0.334639
    17        -0.137963338543214    1.898e-09    0.011906    0.017418    0.017418    0.334639
    18        -0.137963338479188    5.896e-10    0.011906    0.017418    0.017418    0.334639
    19        -0.137963338457594    1.773e-10    0.011906    0.017418    0.017418    0.334639
    20        -0.137963338451307    7.052e-11    0.011906    0.017418    0.017418    0.334639
    21        -0.137963338449404    3.755e-11    0.011906    0.017418    0.017418    0.334639
    22        -0.137963338448535    1.820e-11    0.011906    0.017418    0.017418    0.334639
    23        -0.137963338448173    9.363e-12    0.011906    0.017418    0.017418    0.334639
    24        -0.137963338448009    4.910e-12    0.011906    0.017418    0.017418    0.334639
    25        -0.137963338447994    3.021e-12    0.011906    0.017418    0.017418    0.334639
    26        -0.137963338447986    1.933e-12    0.011906    0.017418    0.017418    0.334639
    27        -0.137963338447999    9.742e-13    0.011906    0.017418    0.017418    0.334639

    Iterations converged.


    Largest TIA Amplitudes:
              0   1        -0.0159192905
              1   2        -0.0132280716
              2  18         0.0117204828
              2  19        -0.0109718920
              1   3        -0.0084066606
              0   2        -0.0054721900
              2  20        -0.0040343408
              0   3         0.0035505576
              2  16         0.0027180523
              1   0        -0.0027128933

    Largest TIjAb Amplitudes:
      2   2   4   4        -0.0861624324
      2   2   6   6        -0.0861624324
      2   2   0   0        -0.0854043991
      1   1  17  17        -0.0668931179
      0   1  16  17         0.0668033580
      1   0  17  16         0.0668033580
      0   0  16  16        -0.0667753055
      1   1   9   9        -0.0660687341
      1   1  13  13        -0.0660687341
      0   1   8   9        -0.0658031226

    SCF energy       (wfn)                    =  -43.700469576158468
    Reference energy (file100)                =  -43.700469576158490

    Opposite-spin MP2 correlation energy      =   -0.069895288903698
    Same-spin MP2 correlation energy          =   -0.000120531618234
    MP2 correlation energy                    =   -0.070015820521932
      * MP2 total energy                      =  -43.770485396680421

    Opposite-spin CCSD correlation energy     =   -0.137838756668055
    Same-spin CCSD correlation energy         =   -0.000124581779870
    CCSD correlation energy                   =   -0.137963338447999
      * CCSD total energy                     =  -43.838432914606486


*** tstop() called on compute-0-0.local at Tue Aug 15 00:45:49 2017
Module time:
	user time   =       0.37 seconds =       0.01 minutes
	system time =       0.44 seconds =       0.01 minutes
	total time  =          8 seconds =       0.13 minutes
Total time:
	user time   =       0.67 seconds =       0.01 minutes
	system time =       0.47 seconds =       0.01 minutes
	total time  =          9 seconds =       0.15 minutes

*** tstart() called on compute-0-0.local
*** at Tue Aug 15 00:45:49 2017

            **************************
            *                        *
            *        CCTRIPLES       *
            *                        *
            **************************


    Wave function   =    CCSD_T
    Reference wfn   =      RHF

    Nuclear Rep. energy (wfn)                =    3.649497990275864
    SCF energy          (wfn)                =  -43.700469576158468
    Reference energy    (file100)            =  -43.700469576158490
    CCSD energy         (file100)            =   -0.137963338447999
    Total CCSD energy   (file100)            =  -43.838432914606486

    Number of ijk index combinations:               10
    Memory available in words        :      3000000000
    ~Words needed per explicit thread:             500
    Number of threads for explicit ijk threading:    1

    (T) energy                                =   -0.000014546317881
      * CCSD(T) total energy                  =  -43.838447460924371


*** tstop() called on compute-0-0.local at Tue Aug 15 00:45:49 2017
Module time:
	user time   =       0.02 seconds =       0.00 minutes
	system time =       0.01 seconds =       0.00 minutes
	total time  =          0 seconds =       0.00 minutes
Total time:
	user time   =       0.69 seconds =       0.01 minutes
	system time =       0.48 seconds =       0.01 minutes
	total time  =          9 seconds =       0.15 minutes

*** Psi4 exiting successfully. Buy a developer a beer!
