    -----------------------------------------------------------------------
          Psi4: An Open-Source Ab Initio Electronic Structure Package
                              Psi4 1.0.0 Driver

                          Git: Rev {master} 6a9a71b dirty

    J. M. Turney, A. C. Simmonett, R. M. Parrish, E. G. Hohenstein,
    F. A. Evangelista, J. T. Fermann, B. J. Mintz, L. A. Burns, J. J. Wilke,
    M. L. Abrams, N. J. Russ, M. L. Leininger, C. L. Janssen, E. T. Seidl,
    W. D. Allen, H. F. Schaefer, R. A. King, E. F. Valeev, C. D. Sherrill,
    and T. D. Crawford, WIREs Comput. Mol. Sci. 2, 556-565 (2012)
    (doi: 10.1002/wcms.93)

                         Additional Contributions by
    A. E. DePrince, U. Bozkaya, A. Yu. Sokolov, D. G. A. Smith, R. Di Remigio,
    R. M. Richard, J. F. Gonthier, H. R. McAlexander, M. Saitow, and
    B. P. Pritchard
    -----------------------------------------------------------------------


    Psi4 started on: Tue Aug 15 00:44:25 2017

    Process ID:   9429
    PSI4DATADIR: /home/yhliu/psi4conda/share/psi4
    Memory level set to 256.000 MB

  ==> Input File <==

--------------------------------------------------------------------------
memory 24 Gb
molecule be3 {
0 1
Be  -5.4    0.0 0.0
Be   0.0    0.0 0.0
Be   5.4    0.0 0.0
units angstrom    
}

set basis 6-31g
set freeze_core true
set PRINT_BASIS True
set PUREAM False
set E_CONVERGENCE 1e-14
energy('ccsd(t)')
--------------------------------------------------------------------------
/home/yhliu/psi4conda/lib/python2.7/site-packages/v2rdm_casscf/v2rdm_casscf.so loaded.

  Memory set to  24.000 GiB by Python script.

*** tstart() called on compute-0-0.local
*** at Tue Aug 15 00:44:25 2017


         ---------------------------------------------------------
                                   SCF
            by Justin Turney, Rob Parrish, and Andy Simmonett
                              RHF Reference
                        1 Threads,  24000 MiB Core
         ---------------------------------------------------------

  ==> Geometry <==

    Molecular point group: d2h
    Full point group: D_inf_h

    Geometry (in Angstrom), charge = 0, multiplicity = 1:

       Center              X                  Y                   Z               Mass       
    ------------   -----------------  -----------------  -----------------  -----------------
          BE         -5.400000000000    -0.000000000000     0.000000000000     9.012182201000
          BE          0.000000000000     0.000000000000     0.000000000000     9.012182201000
          BE          5.400000000000     0.000000000000     0.000000000000     9.012182201000

  Running in d2h symmetry.

  Rotational constants: A = ************  B =      0.03207  C =      0.03207 [cm^-1]
  Rotational constants: A = ************  B =    961.54523  C =    961.54523 [MHz]
  Nuclear repulsion =    3.919831174740743

  Charge       = 0
  Multiplicity = 1
  Electrons    = 12
  Nalpha       = 6
  Nbeta        = 6

  ==> Algorithm <==

  SCF Algorithm Type is PK.
  DIIS enabled.
  MOM disabled.
  Fractional occupation disabled.
  Guess Type is SAD.
  Energy threshold   = 1.00e-14
  Density threshold  = 1.00e-08
  Integral threshold = 0.00e+00

  ==> Primary Basis <==

  Basis Set: 6-31G
    Number of shells: 15
    Number of basis function: 27
    Number of Cartesian functions: 27
    Spherical Harmonics?: false
    Max angular momentum: 1

  -AO BASIS SET INFORMATION:
    Name                   = 6-31G
    Total number of shells = 15
    Number of primitives   = 42
    Number of AO           = 27
    Number of SO           = 27
    Maximum AM             = 1
    Spherical Harmonics    = FALSE

  -Contraction Scheme:
    Atom   Type   All Primitives // Shells:
   ------ ------ --------------------------
       1    BE     10s 4p // 3s 2p 
       2    BE     10s 4p // 3s 2p 
       3    BE     10s 4p // 3s 2p 

  ==> AO Basis Functions <==

    [ 6-31G ]
    cartesian
    ****
   BE   1
    S   6 1.00
                      1264.58570000           0.00194480
                       189.93681000           0.01483510
                        43.15908900           0.07209060
                        12.09866300           0.23715420
                         3.80632320           0.46919870
                         1.27289030           0.35652020
    S   3 1.00
                         3.19646310          -0.11264870
                         0.74781330          -0.22950640
                         0.21996630           1.18691670
    P   3 1.00
                         3.19646310           0.05598020
                         0.74781330           0.26155060
                         0.21996630           0.79397230
    S   1 1.00
                         0.08230990           1.00000000
    P   1 1.00
                         0.08230990           1.00000000
    ****
   BE   2
    S   6 1.00
                      1264.58570000           0.00194480
                       189.93681000           0.01483510
                        43.15908900           0.07209060
                        12.09866300           0.23715420
                         3.80632320           0.46919870
                         1.27289030           0.35652020
    S   3 1.00
                         3.19646310          -0.11264870
                         0.74781330          -0.22950640
                         0.21996630           1.18691670
    P   3 1.00
                         3.19646310           0.05598020
                         0.74781330           0.26155060
                         0.21996630           0.79397230
    S   1 1.00
                         0.08230990           1.00000000
    P   1 1.00
                         0.08230990           1.00000000
    ****

  ==> Pre-Iterations <==

   -------------------------------------------------------
    Irrep   Nso     Nmo     Nalpha   Nbeta   Ndocc  Nsocc
   -------------------------------------------------------
     Ag         8       8       0       0       0       0
     B1g        2       2       0       0       0       0
     B2g        2       2       0       0       0       0
     B3g        0       0       0       0       0       0
     Au         0       0       0       0       0       0
     B1u        4       4       0       0       0       0
     B2u        4       4       0       0       0       0
     B3u        7       7       0       0       0       0
   -------------------------------------------------------
    Total      27      27       6       6       6       0
   -------------------------------------------------------

  ==> Integral Setup <==

  Using in-core PK algorithm.
   Calculation information:
      Number of atoms:                   3
      Number of AO shells:              15
      Number of primitives:             42
      Number of atomic orbitals:        27
      Number of basis functions:        27

      Integral cutoff                 1.00e-12
      Number of threads:                 1

  Performing in-core PK
  Using 143262 doubles for integral storage.
  We computed 4953 shell quartets total.
  Whereas there are 7260 unique shell quartets.
  ==> DiskJK: Disk-Based J/K Matrices <==

    J tasked:                  Yes
    K tasked:                  Yes
    wK tasked:                  No
    Memory (MB):             17166
    Schwarz Cutoff:          1E-12

    OpenMP threads:              1
  Minimum eigenvalue in the overlap matrix is 1.2006460999E-01.
  Using Symmetric Orthogonalization.
  SCF Guess: Superposition of Atomic Densities via on-the-fly atomic UHF.

  ==> Iterations <==

                        Total Energy        Delta E     RMS |[F,P]|

   @RHF iter   0:   -43.70040167186448   -4.37004e+01   1.04462e-03 
   @RHF iter   1:   -43.70059358690875   -1.91915e-04   2.22078e-04 
   @RHF iter   2:   -43.70061494421851   -2.13573e-05   5.84468e-05 DIIS
   @RHF iter   3:   -43.70061669866391   -1.75445e-06   3.31529e-06 DIIS
   @RHF iter   4:   -43.70061670315263   -4.48873e-09   3.44760e-07 DIIS
   @RHF iter   5:   -43.70061670319144   -3.88027e-11   1.70653e-08 DIIS
   @RHF iter   6:   -43.70061670319151   -7.10543e-14   1.85793e-09 DIIS
   @RHF iter   7:   -43.70061670319151   -7.10543e-15   1.65816e-10 DIIS

  ==> Post-Iterations <==

    Orbital Energies (a.u.)
    -----------------------

    Doubly Occupied:                                                      

       1Ag    -4.707465     1B3u   -4.707175     2Ag    -4.707175  
       3Ag    -0.305132     2B3u   -0.301427     4Ag    -0.297551  

    Virtual:                                                              

       3B3u    0.061128     1B2u    0.078497     1B1u    0.078497  
       1B1g    0.082368     1B2g    0.082368     5Ag     0.082509  
       2B2u    0.086204     2B1u    0.086204     4B3u    0.106629  
       6Ag     0.407686     5B3u    0.414815     7Ag     0.448315  
       6B3u    0.451713     3B2u    0.455738     3B1u    0.455738  
       2B1g    0.464788     2B2g    0.464788     4B2u    0.474491  
       4B1u    0.474491     8Ag     0.503107     7B3u    0.543621  

    Final Occupation by Irrep:
             Ag   B1g   B2g   B3g    Au   B1u   B2u   B3u 
    DOCC [     4,    0,    0,    0,    0,    0,    0,    2 ]

  Energy converged.

  @RHF Final Energy:   -43.70061670319151

   => Energetics <=

    Nuclear Repulsion Energy =              3.9198311747407431
    One-Electron Energy =                 -65.1890443132897133
    Two-Electron Energy =                  17.5685964353574491
    DFT Exchange-Correlation Energy =       0.0000000000000000
    Empirical Dispersion Energy =           0.0000000000000000
    PCM Polarization Energy =               0.0000000000000000
    EFP Energy =                            0.0000000000000000
    Total Energy =                        -43.7006167031915211


  Saving occupied orbitals to File 180.

*** tstop() called on compute-0-0.local at Tue Aug 15 00:44:26 2017
Module time:
	user time   =       0.20 seconds =       0.00 minutes
	system time =       0.02 seconds =       0.00 minutes
	total time  =          1 seconds =       0.02 minutes
Total time:
	user time   =       0.20 seconds =       0.00 minutes
	system time =       0.02 seconds =       0.00 minutes
	total time  =          1 seconds =       0.02 minutes


Properties will be evaluated at   0.000000,   0.000000,   0.000000 Bohr

Properties computed using the SCF density matrix

  Nuclear Dipole Moment: (a.u.)
     X:     0.0000      Y:     0.0000      Z:     0.0000

  Electronic Dipole Moment: (a.u.)
     X:     0.0000      Y:     0.0000      Z:     0.0000

  Dipole Moment: (a.u.)
     X:     0.0000      Y:     0.0000      Z:     0.0000     Total:     0.0000

  Dipole Moment: (Debye)
     X:     0.0000      Y:     0.0000      Z:     0.0000     Total:     0.0000

 MINTS: Wrapper to libmints.
   by Justin Turney

   Calculation information:
      Number of atoms:                   3
      Number of AO shells:              15
      Number of SO shells:              10
      Number of primitives:             42
      Number of atomic orbitals:        27
      Number of basis functions:        27

      Number of irreps:                  8
      Integral cutoff                 0.00e+00
      Number of functions per irrep: [   8    2    2    0    0    4    4    7 ]

 OEINTS: Overlap, kinetic, potential, dipole, and quadrupole integrals
         stored in file 35.

      Computing two-electron integrals...done
      Computed 11211 non-zero two-electron integrals.
        Stored in file 33.


*** tstart() called on compute-0-0.local
*** at Tue Aug 15 00:44:26 2017


	Wfn Parameters:
	--------------------
	Wavefunction         = CCSD_T
	Number of irreps     = 8
	Number of MOs        = 27
	Number of active MOs = 24
	AO-Basis             = NONE
	Semicanonical        = false
	Reference            = RHF
	Print Level          = 1

	IRREP	# MOs	# FZDC	# DOCC	# SOCC	# VIRT	# FZVR
	-----	-----	------	------	------	------	------
	 Ag	   8	    2	    2	    0	    4	    0
	 B1g	   2	    0	    0	    0	    2	    0
	 B2g	   2	    0	    0	    0	    2	    0
	 B3g	   0	    0	    0	    0	    0	    0
	 Au	   0	    0	    0	    0	    0	    0
	 B1u	   4	    0	    0	    0	    4	    0
	 B2u	   4	    0	    0	    0	    4	    0
	 B3u	   7	    1	    1	    0	    5	    0
	Transforming integrals...
	IWL integrals will be deleted.
	(OO|OO)...
	Presorting SO-basis two-electron integrals.
	Sorting File: SO Ints (nn|nn) nbuckets = 1
	Transforming the one-electron integrals and constructing Fock matrices
	Starting first half-transformation.
	Sorting half-transformed integrals.
	First half integral transformation complete.
	Starting second half-transformation.
	Two-electron integral transformation complete.
	(OO|OV)...
	Starting second half-transformation.
	Two-electron integral transformation complete.
	(OO|VV)...
	Starting second half-transformation.
	Two-electron integral transformation complete.
	(OV|OO)...
	Starting first half-transformation.
	Sorting half-transformed integrals.
	First half integral transformation complete.
	Starting second half-transformation.
	Two-electron integral transformation complete.
	(OV|OV)...
	Starting second half-transformation.
	Two-electron integral transformation complete.
	(OV|VV)...
	Starting second half-transformation.
	Two-electron integral transformation complete.
	(VV|OO)...
	Starting first half-transformation.
	Sorting half-transformed integrals.
	First half integral transformation complete.
	Starting second half-transformation.
	Two-electron integral transformation complete.
	(VV|OV)...
	Starting second half-transformation.
	Two-electron integral transformation complete.
	(VV|VV)...
	Starting second half-transformation.
	Two-electron integral transformation complete.
	Frozen core energy     =    -43.76898103426485

	Size of irrep 0 of <ab|cd> integrals:      0.007 (MW) /      0.052 (MB)
	Size of irrep 1 of <ab|cd> integrals:      0.003 (MW) /      0.025 (MB)
	Size of irrep 2 of <ab|cd> integrals:      0.003 (MW) /      0.025 (MB)
	Size of irrep 3 of <ab|cd> integrals:      0.002 (MW) /      0.013 (MB)
	Size of irrep 4 of <ab|cd> integrals:      0.001 (MW) /      0.008 (MB)
	Size of irrep 5 of <ab|cd> integrals:      0.003 (MW) /      0.022 (MB)
	Size of irrep 6 of <ab|cd> integrals:      0.003 (MW) /      0.022 (MB)
	Size of irrep 7 of <ab|cd> integrals:      0.005 (MW) /      0.041 (MB)
	Total:                                     0.026 (MW) /      0.208 (MB)

	Size of irrep 0 of <ia|bc> integrals:      0.001 (MW) /      0.008 (MB)
	Size of irrep 1 of <ia|bc> integrals:      0.000 (MW) /      0.004 (MB)
	Size of irrep 2 of <ia|bc> integrals:      0.000 (MW) /      0.004 (MB)
	Size of irrep 3 of <ia|bc> integrals:      0.000 (MW) /      0.000 (MB)
	Size of irrep 4 of <ia|bc> integrals:      0.000 (MW) /      0.000 (MB)
	Size of irrep 5 of <ia|bc> integrals:      0.001 (MW) /      0.004 (MB)
	Size of irrep 6 of <ia|bc> integrals:      0.001 (MW) /      0.004 (MB)
	Size of irrep 7 of <ia|bc> integrals:      0.001 (MW) /      0.008 (MB)
	Total:                                     0.004 (MW) /      0.032 (MB)

	Size of irrep 0 of tijab amplitudes:       0.000 (MW) /      0.003 (MB)
	Size of irrep 1 of tijab amplitudes:       0.000 (MW) /      0.000 (MB)
	Size of irrep 2 of tijab amplitudes:       0.000 (MW) /      0.000 (MB)
	Size of irrep 3 of tijab amplitudes:       0.000 (MW) /      0.000 (MB)
	Size of irrep 4 of tijab amplitudes:       0.000 (MW) /      0.000 (MB)
	Size of irrep 5 of tijab amplitudes:       0.000 (MW) /      0.000 (MB)
	Size of irrep 6 of tijab amplitudes:       0.000 (MW) /      0.000 (MB)
	Size of irrep 7 of tijab amplitudes:       0.000 (MW) /      0.002 (MB)
	Total:                                     0.001 (MW) /      0.006 (MB)

	Nuclear Rep. energy          =      3.91983117474074
	SCF energy                   =    -43.70061670319151
	One-electron energy          =     -5.89471289977877
	Two-electron energy          =      2.04324605611140
	Reference energy             =    -43.70061670319147

*** tstop() called on compute-0-0.local at Tue Aug 15 00:44:29 2017
Module time:
	user time   =       0.03 seconds =       0.00 minutes
	system time =       0.05 seconds =       0.00 minutes
	total time  =          3 seconds =       0.05 minutes
Total time:
	user time   =       0.29 seconds =       0.00 minutes
	system time =       0.07 seconds =       0.00 minutes
	total time  =          4 seconds =       0.07 minutes

*** tstart() called on compute-0-0.local
*** at Tue Aug 15 00:44:29 2017

            **************************
            *                        *
            *        CCENERGY        *
            *                        *
            **************************

    Nuclear Rep. energy (wfn)     =    3.919831174740743
    SCF energy          (wfn)     =  -43.700616703191514
    Reference energy    (file100) =  -43.700616703191471

    Input parameters:
    -----------------
    Wave function   =     CCSD_T
    Reference wfn   =     RHF
    Brueckner       =     No
    Memory (Mbytes) =     24000.0
    Maxiter         =     50
    R_Convergence   =     1.0e-07
    E_Convergence   =     1.0e-14
    Restart         =     Yes
    DIIS            =     Yes
    AO Basis        =     NONE
    ABCD            =     NEW
    Cache Level     =     2
    Cache Type      =     LOW
    Print Level     =     1
    Num. of threads =     1
    # Amps to Print =     10
    Print MP2 Amps? =     No
    Analyze T2 Amps =     No
    Print Pair Ener =     No
    Local CC        =     No
    SCS-MP2         =     False
    SCSN-MP2        =     False
    SCS-CCSD        =     False

MP2 correlation energy -0.0701238975633466
                Solving CC Amplitude Equations
                ------------------------------
  Iter             Energy              RMS        T1Diag      D1Diag    New D1Diag    D2Diag
  ----     ---------------------    ---------   ----------  ----------  ----------   --------
     0        -0.070123897563347    0.000e+00    0.000000    0.000000    0.000000    0.163396
     1        -0.104042995120675    1.458e-01    0.004434    0.006400    0.006400    0.246600
     2        -0.138241057539128    7.665e-02    0.011377    0.016701    0.016701    0.334850
     3        -0.137265879086219    5.333e-03    0.011962    0.017705    0.017705    0.333593
     4        -0.137992893118612    1.620e-03    0.012111    0.017946    0.017946    0.335489
     5        -0.138001383932773    1.832e-04    0.012109    0.017951    0.017951    0.335513
     6        -0.137943961766071    1.383e-04    0.012096    0.017933    0.017933    0.335366
     7        -0.137941041011026    9.234e-06    0.012095    0.017931    0.017931    0.335359
     8        -0.137942748209427    6.210e-06    0.012095    0.017931    0.017931    0.335364
     9        -0.137943250877616    1.750e-06    0.012095    0.017931    0.017931    0.335366
    10        -0.137943313424270    6.071e-07    0.012095    0.017931    0.017931    0.335366
    11        -0.137943307504649    3.422e-07    0.012095    0.017931    0.017931    0.335366
    12        -0.137943310983976    1.420e-07    0.012095    0.017931    0.017931    0.335366
    13        -0.137943312829035    7.457e-08    0.012095    0.017931    0.017931    0.335366
    14        -0.137943313872674    3.875e-08    0.012095    0.017931    0.017931    0.335366
    15        -0.137943313291620    1.613e-08    0.012095    0.017931    0.017931    0.335366
    16        -0.137943312993687    7.463e-09    0.012095    0.017931    0.017931    0.335366
    17        -0.137943312842538    2.635e-09    0.012095    0.017931    0.017931    0.335366
    18        -0.137943312767979    7.566e-10    0.012095    0.017931    0.017931    0.335366
    19        -0.137943312761455    2.660e-10    0.012095    0.017931    0.017931    0.335366
    20        -0.137943312761739    1.264e-10    0.012095    0.017931    0.017931    0.335366
    21        -0.137943312765306    6.376e-11    0.012095    0.017931    0.017931    0.335366
    22        -0.137943312766735    3.216e-11    0.012095    0.017931    0.017931    0.335366
    23        -0.137943312766874    1.824e-11    0.012095    0.017931    0.017931    0.335366
    24        -0.137943312766493    1.076e-11    0.012095    0.017931    0.017931    0.335366
    25        -0.137943312766240    6.404e-12    0.012095    0.017931    0.017931    0.335366
    26        -0.137943312766112    3.604e-12    0.012095    0.017931    0.017931    0.335366
    27        -0.137943312766143    1.562e-12    0.012095    0.017931    0.017931    0.335366
    28        -0.137943312766202    6.105e-13    0.012095    0.017931    0.017931    0.335366
    29        -0.137943312766227    2.710e-13    0.012095    0.017931    0.017931    0.335366
    30        -0.137943312766238    1.339e-13    0.012095    0.017931    0.017931    0.335366
    31        -0.137943312766239    5.871e-14    0.012095    0.017931    0.017931    0.335366
    32        -0.137943312766238    3.127e-14    0.012095    0.017931    0.017931    0.335366

    Iterations converged.


    Largest TIA Amplitudes:
              0   1         0.0161075914
              1   2        -0.0121135190
              2  18         0.0118144061
              2  19        -0.0104982375
              1   3        -0.0092461026
              0   2        -0.0058174608
              2  20        -0.0044174237
              1   0        -0.0042376039
              2  16         0.0041556006
              2  17         0.0040660663

    Largest TIjAb Amplitudes:
      2   2   4   4        -0.0861152210
      2   2   6   6        -0.0861152210
      2   2   0   0        -0.0850820870
      0   0  16  16        -0.0680311181
      0   1  16  17         0.0673751775
      1   0  17  16         0.0673751775
      1   1  17  17        -0.0667519774
      1   1   9   9        -0.0666824619
      1   1  13  13        -0.0666824619
      0   1   8   9        -0.0660579488

    SCF energy       (wfn)                    =  -43.700616703191514
    Reference energy (file100)                =  -43.700616703191471

    Opposite-spin MP2 correlation energy      =   -0.069933692401325
    Same-spin MP2 correlation energy          =   -0.000190205162022
    MP2 correlation energy                    =   -0.070123897563347
      * MP2 total energy                      =  -43.770740600754820

    Opposite-spin CCSD correlation energy     =   -0.137746095020943
    Same-spin CCSD correlation energy         =   -0.000197217751336
    CCSD correlation energy                   =   -0.137943312766238
      * CCSD total energy                     =  -43.838560015957711


*** tstop() called on compute-0-0.local at Tue Aug 15 00:44:41 2017
Module time:
	user time   =       0.53 seconds =       0.01 minutes
	system time =       0.54 seconds =       0.01 minutes
	total time  =         12 seconds =       0.20 minutes
Total time:
	user time   =       0.82 seconds =       0.01 minutes
	system time =       0.61 seconds =       0.01 minutes
	total time  =         16 seconds =       0.27 minutes

*** tstart() called on compute-0-0.local
*** at Tue Aug 15 00:44:41 2017

            **************************
            *                        *
            *        CCTRIPLES       *
            *                        *
            **************************


    Wave function   =    CCSD_T
    Reference wfn   =      RHF

    Nuclear Rep. energy (wfn)                =    3.919831174740743
    SCF energy          (wfn)                =  -43.700616703191514
    Reference energy    (file100)            =  -43.700616703191471
    CCSD energy         (file100)            =   -0.137943312766238
    Total CCSD energy   (file100)            =  -43.838560015957711

    Number of ijk index combinations:               10
    Memory available in words        :      3000000000
    ~Words needed per explicit thread:             500
    Number of threads for explicit ijk threading:    1

    (T) energy                                =   -0.000027151441394
      * CCSD(T) total energy                  =  -43.838587167399105


*** tstop() called on compute-0-0.local at Tue Aug 15 00:44:41 2017
Module time:
	user time   =       0.02 seconds =       0.00 minutes
	system time =       0.02 seconds =       0.00 minutes
	total time  =          0 seconds =       0.00 minutes
Total time:
	user time   =       0.84 seconds =       0.01 minutes
	system time =       0.63 seconds =       0.01 minutes
	total time  =         16 seconds =       0.27 minutes

*** Psi4 exiting successfully. Buy a developer a beer!
