    -----------------------------------------------------------------------
          Psi4: An Open-Source Ab Initio Electronic Structure Package
                              Psi4 1.0.0 Driver

                          Git: Rev {master} 6a9a71b dirty

    J. M. Turney, A. C. Simmonett, R. M. Parrish, E. G. Hohenstein,
    F. A. Evangelista, J. T. Fermann, B. J. Mintz, L. A. Burns, J. J. Wilke,
    M. L. Abrams, N. J. Russ, M. L. Leininger, C. L. Janssen, E. T. Seidl,
    W. D. Allen, H. F. Schaefer, R. A. King, E. F. Valeev, C. D. Sherrill,
    and T. D. Crawford, WIREs Comput. Mol. Sci. 2, 556-565 (2012)
    (doi: 10.1002/wcms.93)

                         Additional Contributions by
    A. E. DePrince, U. Bozkaya, A. Yu. Sokolov, D. G. A. Smith, R. Di Remigio,
    R. M. Richard, J. F. Gonthier, H. R. McAlexander, M. Saitow, and
    B. P. Pritchard
    -----------------------------------------------------------------------


    Psi4 started on: Tue Aug 15 00:50:14 2017

    Process ID:   9573
    PSI4DATADIR: /home/yhliu/psi4conda/share/psi4
    Memory level set to 256.000 MB

  ==> Input File <==

--------------------------------------------------------------------------
memory 24 Gb
molecule be3 {
0 1
Be  -6.5    0.0 0.0
Be   0.0    0.0 0.0
Be   6.5    0.0 0.0
units angstrom    
}

set basis 6-31g
set freeze_core true
set PRINT_BASIS True
set PUREAM False
set E_CONVERGENCE 1e-14
energy('ccsd(t)')
--------------------------------------------------------------------------
/home/yhliu/psi4conda/lib/python2.7/site-packages/v2rdm_casscf/v2rdm_casscf.so loaded.

  Memory set to  24.000 GiB by Python script.

*** tstart() called on compute-0-0.local
*** at Tue Aug 15 00:50:14 2017


         ---------------------------------------------------------
                                   SCF
            by Justin Turney, Rob Parrish, and Andy Simmonett
                              RHF Reference
                        1 Threads,  24000 MiB Core
         ---------------------------------------------------------

  ==> Geometry <==

    Molecular point group: d2h
    Full point group: D_inf_h

    Geometry (in Angstrom), charge = 0, multiplicity = 1:

       Center              X                  Y                   Z               Mass       
    ------------   -----------------  -----------------  -----------------  -----------------
          BE         -6.500000000000    -0.000000000000     0.000000000000     9.012182201000
          BE          0.000000000000     0.000000000000     0.000000000000     9.012182201000
          BE          6.500000000000     0.000000000000     0.000000000000     9.012182201000

  Running in d2h symmetry.

  Rotational constants: A = ************  B =      0.02214  C =      0.02214 [cm^-1]
  Rotational constants: A = ************  B =    663.63690  C =    663.63690 [MHz]
  Nuclear repulsion =    3.256475129784614

  Charge       = 0
  Multiplicity = 1
  Electrons    = 12
  Nalpha       = 6
  Nbeta        = 6

  ==> Algorithm <==

  SCF Algorithm Type is PK.
  DIIS enabled.
  MOM disabled.
  Fractional occupation disabled.
  Guess Type is SAD.
  Energy threshold   = 1.00e-14
  Density threshold  = 1.00e-08
  Integral threshold = 0.00e+00

  ==> Primary Basis <==

  Basis Set: 6-31G
    Number of shells: 15
    Number of basis function: 27
    Number of Cartesian functions: 27
    Spherical Harmonics?: false
    Max angular momentum: 1

  -AO BASIS SET INFORMATION:
    Name                   = 6-31G
    Total number of shells = 15
    Number of primitives   = 42
    Number of AO           = 27
    Number of SO           = 27
    Maximum AM             = 1
    Spherical Harmonics    = FALSE

  -Contraction Scheme:
    Atom   Type   All Primitives // Shells:
   ------ ------ --------------------------
       1    BE     10s 4p // 3s 2p 
       2    BE     10s 4p // 3s 2p 
       3    BE     10s 4p // 3s 2p 

  ==> AO Basis Functions <==

    [ 6-31G ]
    cartesian
    ****
   BE   1
    S   6 1.00
                      1264.58570000           0.00194480
                       189.93681000           0.01483510
                        43.15908900           0.07209060
                        12.09866300           0.23715420
                         3.80632320           0.46919870
                         1.27289030           0.35652020
    S   3 1.00
                         3.19646310          -0.11264870
                         0.74781330          -0.22950640
                         0.21996630           1.18691670
    P   3 1.00
                         3.19646310           0.05598020
                         0.74781330           0.26155060
                         0.21996630           0.79397230
    S   1 1.00
                         0.08230990           1.00000000
    P   1 1.00
                         0.08230990           1.00000000
    ****
   BE   2
    S   6 1.00
                      1264.58570000           0.00194480
                       189.93681000           0.01483510
                        43.15908900           0.07209060
                        12.09866300           0.23715420
                         3.80632320           0.46919870
                         1.27289030           0.35652020
    S   3 1.00
                         3.19646310          -0.11264870
                         0.74781330          -0.22950640
                         0.21996630           1.18691670
    P   3 1.00
                         3.19646310           0.05598020
                         0.74781330           0.26155060
                         0.21996630           0.79397230
    S   1 1.00
                         0.08230990           1.00000000
    P   1 1.00
                         0.08230990           1.00000000
    ****

  ==> Pre-Iterations <==

   -------------------------------------------------------
    Irrep   Nso     Nmo     Nalpha   Nbeta   Ndocc  Nsocc
   -------------------------------------------------------
     Ag         8       8       0       0       0       0
     B1g        2       2       0       0       0       0
     B2g        2       2       0       0       0       0
     B3g        0       0       0       0       0       0
     Au         0       0       0       0       0       0
     B1u        4       4       0       0       0       0
     B2u        4       4       0       0       0       0
     B3u        7       7       0       0       0       0
   -------------------------------------------------------
    Total      27      27       6       6       6       0
   -------------------------------------------------------

  ==> Integral Setup <==

  Using in-core PK algorithm.
   Calculation information:
      Number of atoms:                   3
      Number of AO shells:              15
      Number of primitives:             42
      Number of atomic orbitals:        27
      Number of basis functions:        27

      Integral cutoff                 1.00e-12
      Number of threads:                 1

  Performing in-core PK
  Using 143262 doubles for integral storage.
  We computed 3782 shell quartets total.
  Whereas there are 7260 unique shell quartets.
  ==> DiskJK: Disk-Based J/K Matrices <==

    J tasked:                  Yes
    K tasked:                  Yes
    wK tasked:                  No
    Memory (MB):             17166
    Schwarz Cutoff:          1E-12

    OpenMP threads:              1
  Minimum eigenvalue in the overlap matrix is 1.2722980610E-01.
  Using Symmetric Orthogonalization.
  SCF Guess: Superposition of Atomic Densities via on-the-fly atomic UHF.

  ==> Iterations <==

                        Total Energy        Delta E     RMS |[F,P]|

   @RHF iter   0:   -43.70029412763314   -4.37003e+01   3.62886e-04 
   @RHF iter   1:   -43.70033176514432   -3.76375e-05   6.26305e-05 
   @RHF iter   2:   -43.70033332049072   -1.55535e-06   1.28968e-05 DIIS
   @RHF iter   3:   -43.70033339811035   -7.76196e-08   6.10129e-07 DIIS
   @RHF iter   4:   -43.70033339826562   -1.55268e-10   5.31591e-08 DIIS
   @RHF iter   5:   -43.70033339826657   -9.45022e-13   2.61591e-09 DIIS
   @RHF iter   6:   -43.70033339826658   -1.42109e-14   2.45940e-10 DIIS
   @RHF iter   7:   -43.70033339826656    2.13163e-14   4.48738e-11 DIIS
   @RHF iter   8:   -43.70033339826655    7.10543e-15   3.25181e-12 DIIS

  ==> Post-Iterations <==

    Orbital Energies (a.u.)
    -----------------------

    Doubly Occupied:                                                      

       1Ag    -4.706957     1B3u   -4.706925     2Ag    -4.706925  
       3Ag    -0.302021     2B3u   -0.301310     4Ag    -0.300589  

    Virtual:                                                              

       3B3u    0.074824     1B1u    0.081621     1B2u    0.081621  
       5Ag     0.082381     1B2g    0.082426     1B1g    0.082426  
       2B1u    0.083223     2B2u    0.083223     4B3u    0.089959  
       6Ag     0.430922     5B3u    0.433608     7Ag     0.444009  
       6B3u    0.451129     3B1u    0.462734     3B2u    0.462734  
       2B2g    0.464914     2B1g    0.464914     4B1u    0.467113  
       4B2u    0.467113     8Ag     0.470407     7B3u    0.488640  

    Final Occupation by Irrep:
             Ag   B1g   B2g   B3g    Au   B1u   B2u   B3u 
    DOCC [     4,    0,    0,    0,    0,    0,    0,    2 ]

  Energy converged.

  @RHF Final Energy:   -43.70033339826655

   => Energetics <=

    Nuclear Repulsion Energy =              3.2564751297846142
    One-Electron Energy =                 -63.8641640966584063
    Two-Electron Energy =                  16.9073555686072368
    DFT Exchange-Correlation Energy =       0.0000000000000000
    Empirical Dispersion Energy =           0.0000000000000000
    PCM Polarization Energy =               0.0000000000000000
    EFP Energy =                            0.0000000000000000
    Total Energy =                        -43.7003333982665580


  Saving occupied orbitals to File 180.

*** tstop() called on compute-0-0.local at Tue Aug 15 00:50:15 2017
Module time:
	user time   =       0.21 seconds =       0.00 minutes
	system time =       0.01 seconds =       0.00 minutes
	total time  =          1 seconds =       0.02 minutes
Total time:
	user time   =       0.21 seconds =       0.00 minutes
	system time =       0.01 seconds =       0.00 minutes
	total time  =          1 seconds =       0.02 minutes


Properties will be evaluated at   0.000000,   0.000000,   0.000000 Bohr

Properties computed using the SCF density matrix

  Nuclear Dipole Moment: (a.u.)
     X:     0.0000      Y:     0.0000      Z:     0.0000

  Electronic Dipole Moment: (a.u.)
     X:     0.0000      Y:     0.0000      Z:     0.0000

  Dipole Moment: (a.u.)
     X:     0.0000      Y:     0.0000      Z:     0.0000     Total:     0.0000

  Dipole Moment: (Debye)
     X:     0.0000      Y:     0.0000      Z:     0.0000     Total:     0.0000

 MINTS: Wrapper to libmints.
   by Justin Turney

   Calculation information:
      Number of atoms:                   3
      Number of AO shells:              15
      Number of SO shells:              10
      Number of primitives:             42
      Number of atomic orbitals:        27
      Number of basis functions:        27

      Number of irreps:                  8
      Integral cutoff                 0.00e+00
      Number of functions per irrep: [   8    2    2    0    0    4    4    7 ]

 OEINTS: Overlap, kinetic, potential, dipole, and quadrupole integrals
         stored in file 35.

      Computing two-electron integrals...done
      Computed 11211 non-zero two-electron integrals.
        Stored in file 33.


*** tstart() called on compute-0-0.local
*** at Tue Aug 15 00:50:15 2017


	Wfn Parameters:
	--------------------
	Wavefunction         = CCSD_T
	Number of irreps     = 8
	Number of MOs        = 27
	Number of active MOs = 24
	AO-Basis             = NONE
	Semicanonical        = false
	Reference            = RHF
	Print Level          = 1

	IRREP	# MOs	# FZDC	# DOCC	# SOCC	# VIRT	# FZVR
	-----	-----	------	------	------	------	------
	 Ag	   8	    2	    2	    0	    4	    0
	 B1g	   2	    0	    0	    0	    2	    0
	 B2g	   2	    0	    0	    0	    2	    0
	 B3g	   0	    0	    0	    0	    0	    0
	 Au	   0	    0	    0	    0	    0	    0
	 B1u	   4	    0	    0	    0	    4	    0
	 B2u	   4	    0	    0	    0	    4	    0
	 B3u	   7	    1	    1	    0	    5	    0
	Transforming integrals...
	IWL integrals will be deleted.
	(OO|OO)...
	Presorting SO-basis two-electron integrals.
	Sorting File: SO Ints (nn|nn) nbuckets = 1
	Transforming the one-electron integrals and constructing Fock matrices
	Starting first half-transformation.
	Sorting half-transformed integrals.
	First half integral transformation complete.
	Starting second half-transformation.
	Two-electron integral transformation complete.
	(OO|OV)...
	Starting second half-transformation.
	Two-electron integral transformation complete.
	(OO|VV)...
	Starting second half-transformation.
	Two-electron integral transformation complete.
	(OV|OO)...
	Starting first half-transformation.
	Sorting half-transformed integrals.
	First half integral transformation complete.
	Starting second half-transformation.
	Two-electron integral transformation complete.
	(OV|OV)...
	Starting second half-transformation.
	Two-electron integral transformation complete.
	(OV|VV)...
	Starting second half-transformation.
	Two-electron integral transformation complete.
	(VV|OO)...
	Starting first half-transformation.
	Sorting half-transformed integrals.
	First half integral transformation complete.
	Starting second half-transformation.
	Two-electron integral transformation complete.
	(VV|OV)...
	Starting second half-transformation.
	Two-electron integral transformation complete.
	(VV|VV)...
	Starting second half-transformation.
	Two-electron integral transformation complete.
	Frozen core energy     =    -43.27146264241144

	Size of irrep 0 of <ab|cd> integrals:      0.007 (MW) /      0.052 (MB)
	Size of irrep 1 of <ab|cd> integrals:      0.003 (MW) /      0.025 (MB)
	Size of irrep 2 of <ab|cd> integrals:      0.003 (MW) /      0.025 (MB)
	Size of irrep 3 of <ab|cd> integrals:      0.002 (MW) /      0.013 (MB)
	Size of irrep 4 of <ab|cd> integrals:      0.001 (MW) /      0.008 (MB)
	Size of irrep 5 of <ab|cd> integrals:      0.003 (MW) /      0.022 (MB)
	Size of irrep 6 of <ab|cd> integrals:      0.003 (MW) /      0.022 (MB)
	Size of irrep 7 of <ab|cd> integrals:      0.005 (MW) /      0.041 (MB)
	Total:                                     0.026 (MW) /      0.208 (MB)

	Size of irrep 0 of <ia|bc> integrals:      0.001 (MW) /      0.008 (MB)
	Size of irrep 1 of <ia|bc> integrals:      0.000 (MW) /      0.004 (MB)
	Size of irrep 2 of <ia|bc> integrals:      0.000 (MW) /      0.004 (MB)
	Size of irrep 3 of <ia|bc> integrals:      0.000 (MW) /      0.000 (MB)
	Size of irrep 4 of <ia|bc> integrals:      0.000 (MW) /      0.000 (MB)
	Size of irrep 5 of <ia|bc> integrals:      0.001 (MW) /      0.004 (MB)
	Size of irrep 6 of <ia|bc> integrals:      0.001 (MW) /      0.004 (MB)
	Size of irrep 7 of <ia|bc> integrals:      0.001 (MW) /      0.008 (MB)
	Total:                                     0.004 (MW) /      0.032 (MB)

	Size of irrep 0 of tijab amplitudes:       0.000 (MW) /      0.003 (MB)
	Size of irrep 1 of tijab amplitudes:       0.000 (MW) /      0.000 (MB)
	Size of irrep 2 of tijab amplitudes:       0.000 (MW) /      0.000 (MB)
	Size of irrep 3 of tijab amplitudes:       0.000 (MW) /      0.000 (MB)
	Size of irrep 4 of tijab amplitudes:       0.000 (MW) /      0.000 (MB)
	Size of irrep 5 of tijab amplitudes:       0.000 (MW) /      0.000 (MB)
	Size of irrep 6 of tijab amplitudes:       0.000 (MW) /      0.000 (MB)
	Size of irrep 7 of tijab amplitudes:       0.000 (MW) /      0.002 (MB)
	Total:                                     0.001 (MW) /      0.006 (MB)

	Nuclear Rep. energy          =      3.25647512978461
	SCF energy                   =    -43.70033339826655
	One-electron energy          =     -5.56285220284816
	Two-electron energy          =      1.87750631720841
	Reference energy             =    -43.70033339826658

*** tstop() called on compute-0-0.local at Tue Aug 15 00:50:15 2017
Module time:
	user time   =       0.04 seconds =       0.00 minutes
	system time =       0.04 seconds =       0.00 minutes
	total time  =          0 seconds =       0.00 minutes
Total time:
	user time   =       0.30 seconds =       0.01 minutes
	system time =       0.05 seconds =       0.00 minutes
	total time  =          1 seconds =       0.02 minutes

*** tstart() called on compute-0-0.local
*** at Tue Aug 15 00:50:15 2017

            **************************
            *                        *
            *        CCENERGY        *
            *                        *
            **************************

    Nuclear Rep. energy (wfn)     =    3.256475129784614
    SCF energy          (wfn)     =  -43.700333398266551
    Reference energy    (file100) =  -43.700333398266579

    Input parameters:
    -----------------
    Wave function   =     CCSD_T
    Reference wfn   =     RHF
    Brueckner       =     No
    Memory (Mbytes) =     24000.0
    Maxiter         =     50
    R_Convergence   =     1.0e-07
    E_Convergence   =     1.0e-14
    Restart         =     Yes
    DIIS            =     Yes
    AO Basis        =     NONE
    ABCD            =     NEW
    Cache Level     =     2
    Cache Type      =     LOW
    Print Level     =     1
    Num. of threads =     1
    # Amps to Print =     10
    Print MP2 Amps? =     No
    Analyze T2 Amps =     No
    Print Pair Ener =     No
    Local CC        =     No
    SCS-MP2         =     False
    SCSN-MP2        =     False
    SCS-CCSD        =     False

MP2 correlation energy -0.0699142541311580
                Solving CC Amplitude Equations
                ------------------------------
  Iter             Energy              RMS        T1Diag      D1Diag    New D1Diag    D2Diag
  ----     ---------------------    ---------   ----------  ----------  ----------   --------
     0        -0.069914254131158    0.000e+00    0.000000    0.000000    0.000000    0.162314
     1        -0.103874431495626    1.462e-01    0.004408    0.006287    0.006287    0.245238
     2        -0.138344889052957    7.693e-02    0.011220    0.016061    0.016061    0.333661
     3        -0.137300683091659    5.046e-03    0.011695    0.016770    0.016770    0.332228
     4        -0.137976268662233    1.554e-03    0.011813    0.016942    0.016942    0.333980
     5        -0.137970496727912    7.769e-05    0.011800    0.016925    0.016925    0.333972
     6        -0.137966499816736    1.593e-05    0.011798    0.016923    0.016923    0.333963
     7        -0.137965408751610    4.169e-06    0.011797    0.016922    0.016922    0.333961
     8        -0.137966254733703    2.690e-06    0.011797    0.016922    0.016922    0.333964
     9        -0.137966402629967    6.654e-07    0.011797    0.016922    0.016922    0.333964
    10        -0.137966465581370    2.602e-07    0.011797    0.016922    0.016922    0.333964
    11        -0.137966466388354    5.449e-08    0.011797    0.016922    0.016922    0.333964
    12        -0.137966466950574    2.220e-08    0.011797    0.016922    0.016922    0.333964
    13        -0.137966467164006    7.383e-09    0.011797    0.016922    0.016922    0.333964
    14        -0.137966467190135    3.083e-09    0.011797    0.016922    0.016922    0.333964
    15        -0.137966467208482    2.038e-09    0.011797    0.016922    0.016922    0.333964
    16        -0.137966467212480    1.081e-09    0.011797    0.016922    0.016922    0.333964
    17        -0.137966467192761    4.933e-10    0.011797    0.016922    0.016922    0.333964
    18        -0.137966467185631    1.906e-10    0.011797    0.016922    0.016922    0.333964
    19        -0.137966467181995    7.344e-11    0.011797    0.016922    0.016922    0.333964
    20        -0.137966467181088    2.480e-11    0.011797    0.016922    0.016922    0.333964
    21        -0.137966467180841    1.251e-11    0.011797    0.016922    0.016922    0.333964
    22        -0.137966467180708    6.770e-12    0.011797    0.016922    0.016922    0.333964
    23        -0.137966467180696    2.391e-12    0.011797    0.016922    0.016922    0.333964
    24        -0.137966467180698    1.023e-12    0.011797    0.016922    0.016922    0.333964
    25        -0.137966467180694    4.993e-13    0.011797    0.016922    0.016922    0.333964

    Iterations converged.


    Largest TIA Amplitudes:
              0   1        -0.0162002755
              1   2        -0.0153609057
              2  18        -0.0141706699
              2  19        -0.0082618510
              1   3        -0.0052269801
              0   2        -0.0034724152
              0   3         0.0032726123
              2  20        -0.0028440055
              1   1         0.0021794103
              1   0        -0.0010976028

    Largest TIjAb Amplitudes:
      2   2   4   4        -0.0861786826
      2   2   6   6        -0.0861786826
      2   2   0   0        -0.0857375318
      1   1  17  17        -0.0664762730
      0   1  16  17         0.0662056944
      1   0  17  16         0.0662056944
      0   0  16  16        -0.0659541724
      0   0   8   8        -0.0654940657
      0   0  12  12        -0.0654940657
      0   1   8   9        -0.0654737198

    SCF energy       (wfn)                    =  -43.700333398266551
    Reference energy (file100)                =  -43.700333398266579

    Opposite-spin MP2 correlation energy      =   -0.069855261487368
    Same-spin MP2 correlation energy          =   -0.000058992643790
    MP2 correlation energy                    =   -0.069914254131158
      * MP2 total energy                      =  -43.770247652397735

    Opposite-spin CCSD correlation energy     =   -0.137905573974557
    Same-spin CCSD correlation energy         =   -0.000060893206155
    CCSD correlation energy                   =   -0.137966467180694
      * CCSD total energy                     =  -43.838299865447276


*** tstop() called on compute-0-0.local at Tue Aug 15 00:50:31 2017
Module time:
	user time   =       0.34 seconds =       0.01 minutes
	system time =       0.44 seconds =       0.01 minutes
	total time  =         16 seconds =       0.27 minutes
Total time:
	user time   =       0.64 seconds =       0.01 minutes
	system time =       0.49 seconds =       0.01 minutes
	total time  =         17 seconds =       0.28 minutes

*** tstart() called on compute-0-0.local
*** at Tue Aug 15 00:50:31 2017

            **************************
            *                        *
            *        CCTRIPLES       *
            *                        *
            **************************


    Wave function   =    CCSD_T
    Reference wfn   =      RHF

    Nuclear Rep. energy (wfn)                =    3.256475129784614
    SCF energy          (wfn)                =  -43.700333398266551
    Reference energy    (file100)            =  -43.700333398266579
    CCSD energy         (file100)            =   -0.137966467180694
    Total CCSD energy   (file100)            =  -43.838299865447276

    Number of ijk index combinations:               10
    Memory available in words        :      3000000000
    ~Words needed per explicit thread:             500
    Number of threads for explicit ijk threading:    1

    (T) energy                                =   -0.000005786071186
      * CCSD(T) total energy                  =  -43.838305651518461


*** tstop() called on compute-0-0.local at Tue Aug 15 00:50:32 2017
Module time:
	user time   =       0.01 seconds =       0.00 minutes
	system time =       0.02 seconds =       0.00 minutes
	total time  =          1 seconds =       0.02 minutes
Total time:
	user time   =       0.65 seconds =       0.01 minutes
	system time =       0.51 seconds =       0.01 minutes
	total time  =         18 seconds =       0.30 minutes

*** Psi4 exiting successfully. Buy a developer a beer!
