    -----------------------------------------------------------------------
          Psi4: An Open-Source Ab Initio Electronic Structure Package
                              Psi4 1.0.0 Driver

                          Git: Rev {master} 6a9a71b dirty

    J. M. Turney, A. C. Simmonett, R. M. Parrish, E. G. Hohenstein,
    F. A. Evangelista, J. T. Fermann, B. J. Mintz, L. A. Burns, J. J. Wilke,
    M. L. Abrams, N. J. Russ, M. L. Leininger, C. L. Janssen, E. T. Seidl,
    W. D. Allen, H. F. Schaefer, R. A. King, E. F. Valeev, C. D. Sherrill,
    and T. D. Crawford, WIREs Comput. Mol. Sci. 2, 556-565 (2012)
    (doi: 10.1002/wcms.93)

                         Additional Contributions by
    A. E. DePrince, U. Bozkaya, A. Yu. Sokolov, D. G. A. Smith, R. Di Remigio,
    R. M. Richard, J. F. Gonthier, H. R. McAlexander, M. Saitow, and
    B. P. Pritchard
    -----------------------------------------------------------------------


    Psi4 started on: Tue Aug 15 00:52:32 2017

    Process ID:   9652
    PSI4DATADIR: /home/yhliu/psi4conda/share/psi4
    Memory level set to 256.000 MB

  ==> Input File <==

--------------------------------------------------------------------------
memory 24 Gb
molecule be3 {
0 1
Be  -7.5    0.0 0.0
Be   0.0    0.0 0.0
Be   7.5    0.0 0.0
units angstrom    
}

set basis 6-31g
set freeze_core true
set PRINT_BASIS True
set PUREAM False
set E_CONVERGENCE 1e-14
energy('ccsd(t)')
--------------------------------------------------------------------------
/home/yhliu/psi4conda/lib/python2.7/site-packages/v2rdm_casscf/v2rdm_casscf.so loaded.

  Memory set to  24.000 GiB by Python script.

*** tstart() called on compute-0-0.local
*** at Tue Aug 15 00:52:33 2017


         ---------------------------------------------------------
                                   SCF
            by Justin Turney, Rob Parrish, and Andy Simmonett
                              RHF Reference
                        1 Threads,  24000 MiB Core
         ---------------------------------------------------------

  ==> Geometry <==

    Molecular point group: d2h
    Full point group: D_inf_h

    Geometry (in Angstrom), charge = 0, multiplicity = 1:

       Center              X                  Y                   Z               Mass       
    ------------   -----------------  -----------------  -----------------  -----------------
          BE         -7.500000000000    -0.000000000000     0.000000000000     9.012182201000
          BE          0.000000000000     0.000000000000     0.000000000000     9.012182201000
          BE          7.500000000000     0.000000000000     0.000000000000     9.012182201000

  Running in d2h symmetry.

  Rotational constants: A = ************  B =      0.01663  C =      0.01663 [cm^-1]
  Rotational constants: A = ************  B =    498.46505  C =    498.46505 [MHz]
  Nuclear repulsion =    2.822278445813333

  Charge       = 0
  Multiplicity = 1
  Electrons    = 12
  Nalpha       = 6
  Nbeta        = 6

  ==> Algorithm <==

  SCF Algorithm Type is PK.
  DIIS enabled.
  MOM disabled.
  Fractional occupation disabled.
  Guess Type is SAD.
  Energy threshold   = 1.00e-14
  Density threshold  = 1.00e-08
  Integral threshold = 0.00e+00

  ==> Primary Basis <==

  Basis Set: 6-31G
    Number of shells: 15
    Number of basis function: 27
    Number of Cartesian functions: 27
    Spherical Harmonics?: false
    Max angular momentum: 1

  -AO BASIS SET INFORMATION:
    Name                   = 6-31G
    Total number of shells = 15
    Number of primitives   = 42
    Number of AO           = 27
    Number of SO           = 27
    Maximum AM             = 1
    Spherical Harmonics    = FALSE

  -Contraction Scheme:
    Atom   Type   All Primitives // Shells:
   ------ ------ --------------------------
       1    BE     10s 4p // 3s 2p 
       2    BE     10s 4p // 3s 2p 
       3    BE     10s 4p // 3s 2p 

  ==> AO Basis Functions <==

    [ 6-31G ]
    cartesian
    ****
   BE   1
    S   6 1.00
                      1264.58570000           0.00194480
                       189.93681000           0.01483510
                        43.15908900           0.07209060
                        12.09866300           0.23715420
                         3.80632320           0.46919870
                         1.27289030           0.35652020
    S   3 1.00
                         3.19646310          -0.11264870
                         0.74781330          -0.22950640
                         0.21996630           1.18691670
    P   3 1.00
                         3.19646310           0.05598020
                         0.74781330           0.26155060
                         0.21996630           0.79397230
    S   1 1.00
                         0.08230990           1.00000000
    P   1 1.00
                         0.08230990           1.00000000
    ****
   BE   2
    S   6 1.00
                      1264.58570000           0.00194480
                       189.93681000           0.01483510
                        43.15908900           0.07209060
                        12.09866300           0.23715420
                         3.80632320           0.46919870
                         1.27289030           0.35652020
    S   3 1.00
                         3.19646310          -0.11264870
                         0.74781330          -0.22950640
                         0.21996630           1.18691670
    P   3 1.00
                         3.19646310           0.05598020
                         0.74781330           0.26155060
                         0.21996630           0.79397230
    S   1 1.00
                         0.08230990           1.00000000
    P   1 1.00
                         0.08230990           1.00000000
    ****

  ==> Pre-Iterations <==

   -------------------------------------------------------
    Irrep   Nso     Nmo     Nalpha   Nbeta   Ndocc  Nsocc
   -------------------------------------------------------
     Ag         8       8       0       0       0       0
     B1g        2       2       0       0       0       0
     B2g        2       2       0       0       0       0
     B3g        0       0       0       0       0       0
     Au         0       0       0       0       0       0
     B1u        4       4       0       0       0       0
     B2u        4       4       0       0       0       0
     B3u        7       7       0       0       0       0
   -------------------------------------------------------
    Total      27      27       6       6       6       0
   -------------------------------------------------------

  ==> Integral Setup <==

  Using in-core PK algorithm.
   Calculation information:
      Number of atoms:                   3
      Number of AO shells:              15
      Number of primitives:             42
      Number of atomic orbitals:        27
      Number of basis functions:        27

      Integral cutoff                 1.00e-12
      Number of threads:                 1

  Performing in-core PK
  Using 143262 doubles for integral storage.
  We computed 3283 shell quartets total.
  Whereas there are 7260 unique shell quartets.
  ==> DiskJK: Disk-Based J/K Matrices <==

    J tasked:                  Yes
    K tasked:                  Yes
    wK tasked:                  No
    Memory (MB):             17166
    Schwarz Cutoff:          1E-12

    OpenMP threads:              1
  Minimum eigenvalue in the overlap matrix is 1.2837492111E-01.
  Using Symmetric Orthogonalization.
  SCF Guess: Superposition of Atomic Densities via on-the-fly atomic UHF.

  ==> Iterations <==

                        Total Energy        Delta E     RMS |[F,P]|

   @RHF iter   0:   -43.70029212263440   -4.37003e+01   8.80112e-05 
   @RHF iter   1:   -43.70029439760253   -2.27497e-06   1.27480e-05 
   @RHF iter   2:   -43.70029445921477   -6.16122e-08   2.20081e-06 DIIS
   @RHF iter   3:   -43.70029446136051   -2.14574e-09   8.76316e-08 DIIS
   @RHF iter   4:   -43.70029446136366   -3.15481e-12   3.84124e-09 DIIS
   @RHF iter   5:   -43.70029446136366    0.00000e+00   4.80346e-10 DIIS

  ==> Post-Iterations <==

    Orbital Energies (a.u.)
    -----------------------

    Doubly Occupied:                                                      

       1Ag    -4.706894     1B3u   -4.706892     2Ag    -4.706892  
       3Ag    -0.301416     2B3u   -0.301296     4Ag    -0.301176  

    Virtual:                                                              

       3B3u    0.080575     1B1u    0.082297     1B2u    0.082297  
       5Ag     0.082432     1B1g    0.082435     1B2g    0.082435  
       2B1u    0.082573     2B2u    0.082573     4B3u    0.084278  
       6Ag     0.438440     5B3u    0.439507     7Ag     0.440832  
       6B3u    0.460050     3B1u    0.464555     3B2u    0.464555  
       2B1g    0.464930     2B2g    0.464930     8Ag     0.465197  
       4B1u    0.465305     4B2u    0.465305     7B3u    0.470234  

    Final Occupation by Irrep:
             Ag   B1g   B2g   B3g    Au   B1u   B2u   B3u 
    DOCC [     4,    0,    0,    0,    0,    0,    0,    2 ]

  Energy converged.

  @RHF Final Energy:   -43.70029446136366

   => Energetics <=

    Nuclear Repulsion Energy =              2.8222784458133332
    One-Electron Energy =                 -62.9960121915248834
    Two-Electron Energy =                  16.4734392843478901
    DFT Exchange-Correlation Energy =       0.0000000000000000
    Empirical Dispersion Energy =           0.0000000000000000
    PCM Polarization Energy =               0.0000000000000000
    EFP Energy =                            0.0000000000000000
    Total Energy =                        -43.7002944613636615


  Saving occupied orbitals to File 180.

*** tstop() called on compute-0-0.local at Tue Aug 15 00:52:33 2017
Module time:
	user time   =       0.21 seconds =       0.00 minutes
	system time =       0.01 seconds =       0.00 minutes
	total time  =          0 seconds =       0.00 minutes
Total time:
	user time   =       0.21 seconds =       0.00 minutes
	system time =       0.01 seconds =       0.00 minutes
	total time  =          0 seconds =       0.00 minutes


Properties will be evaluated at   0.000000,   0.000000,   0.000000 Bohr

Properties computed using the SCF density matrix

  Nuclear Dipole Moment: (a.u.)
     X:     0.0000      Y:     0.0000      Z:     0.0000

  Electronic Dipole Moment: (a.u.)
     X:     0.0000      Y:     0.0000      Z:     0.0000

  Dipole Moment: (a.u.)
     X:     0.0000      Y:     0.0000      Z:     0.0000     Total:     0.0000

  Dipole Moment: (Debye)
     X:     0.0000      Y:     0.0000      Z:     0.0000     Total:     0.0000

 MINTS: Wrapper to libmints.
   by Justin Turney

   Calculation information:
      Number of atoms:                   3
      Number of AO shells:              15
      Number of SO shells:              10
      Number of primitives:             42
      Number of atomic orbitals:        27
      Number of basis functions:        27

      Number of irreps:                  8
      Integral cutoff                 0.00e+00
      Number of functions per irrep: [   8    2    2    0    0    4    4    7 ]

 OEINTS: Overlap, kinetic, potential, dipole, and quadrupole integrals
         stored in file 35.

      Computing two-electron integrals...done
      Computed 11211 non-zero two-electron integrals.
        Stored in file 33.


*** tstart() called on compute-0-0.local
*** at Tue Aug 15 00:52:33 2017


	Wfn Parameters:
	--------------------
	Wavefunction         = CCSD_T
	Number of irreps     = 8
	Number of MOs        = 27
	Number of active MOs = 24
	AO-Basis             = NONE
	Semicanonical        = false
	Reference            = RHF
	Print Level          = 1

	IRREP	# MOs	# FZDC	# DOCC	# SOCC	# VIRT	# FZVR
	-----	-----	------	------	------	------	------
	 Ag	   8	    2	    2	    0	    4	    0
	 B1g	   2	    0	    0	    0	    2	    0
	 B2g	   2	    0	    0	    0	    2	    0
	 B3g	   0	    0	    0	    0	    0	    0
	 Au	   0	    0	    0	    0	    0	    0
	 B1u	   4	    0	    0	    0	    4	    0
	 B2u	   4	    0	    0	    0	    4	    0
	 B3u	   7	    1	    1	    0	    5	    0
	Transforming integrals...
	IWL integrals will be deleted.
	(OO|OO)...
	Presorting SO-basis two-electron integrals.
	Sorting File: SO Ints (nn|nn) nbuckets = 1
	Transforming the one-electron integrals and constructing Fock matrices
	Starting first half-transformation.
	Sorting half-transformed integrals.
	First half integral transformation complete.
	Starting second half-transformation.
	Two-electron integral transformation complete.
	(OO|OV)...
	Starting second half-transformation.
	Two-electron integral transformation complete.
	(OO|VV)...
	Starting second half-transformation.
	Two-electron integral transformation complete.
	(OV|OO)...
	Starting first half-transformation.
	Sorting half-transformed integrals.
	First half integral transformation complete.
	Starting second half-transformation.
	Two-electron integral transformation complete.
	(OV|OV)...
	Starting second half-transformation.
	Two-electron integral transformation complete.
	(OV|VV)...
	Starting second half-transformation.
	Two-electron integral transformation complete.
	(VV|OO)...
	Starting first half-transformation.
	Sorting half-transformed integrals.
	First half integral transformation complete.
	Starting second half-transformation.
	Two-electron integral transformation complete.
	(VV|OV)...
	Starting second half-transformation.
	Two-electron integral transformation complete.
	(VV|VV)...
	Starting second half-transformation.
	Two-electron integral transformation complete.
	Frozen core energy     =    -42.94581505436571

	Size of irrep 0 of <ab|cd> integrals:      0.007 (MW) /      0.052 (MB)
	Size of irrep 1 of <ab|cd> integrals:      0.003 (MW) /      0.025 (MB)
	Size of irrep 2 of <ab|cd> integrals:      0.003 (MW) /      0.025 (MB)
	Size of irrep 3 of <ab|cd> integrals:      0.002 (MW) /      0.013 (MB)
	Size of irrep 4 of <ab|cd> integrals:      0.001 (MW) /      0.008 (MB)
	Size of irrep 5 of <ab|cd> integrals:      0.003 (MW) /      0.022 (MB)
	Size of irrep 6 of <ab|cd> integrals:      0.003 (MW) /      0.022 (MB)
	Size of irrep 7 of <ab|cd> integrals:      0.005 (MW) /      0.041 (MB)
	Total:                                     0.026 (MW) /      0.208 (MB)

	Size of irrep 0 of <ia|bc> integrals:      0.001 (MW) /      0.008 (MB)
	Size of irrep 1 of <ia|bc> integrals:      0.000 (MW) /      0.004 (MB)
	Size of irrep 2 of <ia|bc> integrals:      0.000 (MW) /      0.004 (MB)
	Size of irrep 3 of <ia|bc> integrals:      0.000 (MW) /      0.000 (MB)
	Size of irrep 4 of <ia|bc> integrals:      0.000 (MW) /      0.000 (MB)
	Size of irrep 5 of <ia|bc> integrals:      0.001 (MW) /      0.004 (MB)
	Size of irrep 6 of <ia|bc> integrals:      0.001 (MW) /      0.004 (MB)
	Size of irrep 7 of <ia|bc> integrals:      0.001 (MW) /      0.008 (MB)
	Total:                                     0.004 (MW) /      0.032 (MB)

	Size of irrep 0 of tijab amplitudes:       0.000 (MW) /      0.003 (MB)
	Size of irrep 1 of tijab amplitudes:       0.000 (MW) /      0.000 (MB)
	Size of irrep 2 of tijab amplitudes:       0.000 (MW) /      0.000 (MB)
	Size of irrep 3 of tijab amplitudes:       0.000 (MW) /      0.000 (MB)
	Size of irrep 4 of tijab amplitudes:       0.000 (MW) /      0.000 (MB)
	Size of irrep 5 of tijab amplitudes:       0.000 (MW) /      0.000 (MB)
	Size of irrep 6 of tijab amplitudes:       0.000 (MW) /      0.000 (MB)
	Size of irrep 7 of tijab amplitudes:       0.000 (MW) /      0.002 (MB)
	Total:                                     0.001 (MW) /      0.006 (MB)

	Nuclear Rep. energy          =      2.82227844581333
	SCF energy                   =    -43.70029446136366
	One-electron energy          =     -5.34573942717328
	Two-electron energy          =      1.76898157436204
	Reference energy             =    -43.70029446136362

*** tstop() called on compute-0-0.local at Tue Aug 15 00:52:34 2017
Module time:
	user time   =       0.04 seconds =       0.00 minutes
	system time =       0.03 seconds =       0.00 minutes
	total time  =          1 seconds =       0.02 minutes
Total time:
	user time   =       0.30 seconds =       0.01 minutes
	system time =       0.05 seconds =       0.00 minutes
	total time  =          1 seconds =       0.02 minutes

*** tstart() called on compute-0-0.local
*** at Tue Aug 15 00:52:34 2017

            **************************
            *                        *
            *        CCENERGY        *
            *                        *
            **************************

    Nuclear Rep. energy (wfn)     =    2.822278445813333
    SCF energy          (wfn)     =  -43.700294461363661
    Reference energy    (file100) =  -43.700294461363619

    Input parameters:
    -----------------
    Wave function   =     CCSD_T
    Reference wfn   =     RHF
    Brueckner       =     No
    Memory (Mbytes) =     24000.0
    Maxiter         =     50
    R_Convergence   =     1.0e-07
    E_Convergence   =     1.0e-14
    Restart         =     Yes
    DIIS            =     Yes
    AO Basis        =     NONE
    ABCD            =     NEW
    Cache Level     =     2
    Cache Type      =     LOW
    Print Level     =     1
    Num. of threads =     1
    # Amps to Print =     10
    Print MP2 Amps? =     No
    Analyze T2 Amps =     No
    Print Pair Ener =     No
    Local CC        =     No
    SCS-MP2         =     False
    SCSN-MP2        =     False
    SCS-CCSD        =     False

MP2 correlation energy -0.0698507373000320
                Solving CC Amplitude Equations
                ------------------------------
  Iter             Energy              RMS        T1Diag      D1Diag    New D1Diag    D2Diag
  ----     ---------------------    ---------   ----------  ----------  ----------   --------
     0        -0.069850737300032    0.000e+00    0.000000    0.000000    0.000000    0.162065
     1        -0.103812821775991    1.463e-01    0.004417    0.006257    0.006257    0.244928
     2        -0.138343181078184    7.699e-02    0.011234    0.015922    0.015922    0.333412
     3        -0.137283806117016    4.986e-03    0.011692    0.016577    0.016577    0.331940
     4        -0.137921556041268    1.541e-03    0.011802    0.016733    0.016733    0.333592
     5        -0.137950107053890    8.998e-05    0.011794    0.016722    0.016722    0.333673
     6        -0.137944965646109    8.494e-06    0.011792    0.016719    0.016719    0.333662
     7        -0.137945917892597    4.516e-06    0.011792    0.016719    0.016719    0.333664
     8        -0.137946788822317    2.076e-06    0.011792    0.016719    0.016719    0.333666
     9        -0.137946815428495    1.543e-07    0.011792    0.016719    0.016719    0.333666
    10        -0.137946784048635    9.329e-08    0.011792    0.016719    0.016719    0.333666
    11        -0.137946784563493    2.325e-08    0.011792    0.016719    0.016719    0.333666
    12        -0.137946784457422    7.190e-09    0.011792    0.016719    0.016719    0.333666
    13        -0.137946784631656    2.521e-09    0.011792    0.016719    0.016719    0.333666
    14        -0.137946784731247    8.993e-10    0.011792    0.016719    0.016719    0.333666
    15        -0.137946784733797    1.835e-10    0.011792    0.016719    0.016719    0.333666
    16        -0.137946784730225    7.207e-11    0.011792    0.016719    0.016719    0.333666
    17        -0.137946784731600    3.174e-11    0.011792    0.016719    0.016719    0.333666
    18        -0.137946784731171    1.003e-11    0.011792    0.016719    0.016719    0.333666
    19        -0.137946784731110    6.199e-12    0.011792    0.016719    0.016719    0.333666
    20        -0.137946784731068    3.571e-12    0.011792    0.016719    0.016719    0.333666
    21        -0.137946784731050    1.738e-12    0.011792    0.016719    0.016719    0.333666
    22        -0.137946784731051    7.204e-13    0.011792    0.016719    0.016719    0.333666
    23        -0.137946784731041    2.397e-13    0.011792    0.016719    0.016719    0.333666

    Iterations converged.


    Largest TIA Amplitudes:
              0   1        -0.0166614313
              2  18        -0.0165987614
              1   2        -0.0165687162
              2  19        -0.0013666344
              1   3        -0.0011572595
              0   3         0.0010580794
              2  20        -0.0009344357
              0   2        -0.0008597602
              1   1         0.0007622192
              1   0        -0.0002263892

    Largest TIjAb Amplitudes:
      2   2   4   4        -0.0861627624
      2   2   6   6        -0.0861627624
      2   2   0   0        -0.0859121917
      1   1  17  17        -0.0657624087
      0   1  16  17         0.0656796487
      1   0  17  16         0.0656796487
      0   0  16  16        -0.0655979280
      0   0   8   8        -0.0652132622
      0   0  12  12        -0.0652132622
      0   1   8   9        -0.0651710473

    SCF energy       (wfn)                    =  -43.700294461363661
    Reference energy (file100)                =  -43.700294461363619

    Opposite-spin MP2 correlation energy      =   -0.069826022794046
    Same-spin MP2 correlation energy          =   -0.000024714505986
    MP2 correlation energy                    =   -0.069850737300032
      * MP2 total energy                      =  -43.770145198663649

    Opposite-spin CCSD correlation energy     =   -0.137921276547351
    Same-spin CCSD correlation energy         =   -0.000025508162923
    CCSD correlation energy                   =   -0.137946784731041
      * CCSD total energy                     =  -43.838241246094661


*** tstop() called on compute-0-0.local at Tue Aug 15 00:52:38 2017
Module time:
	user time   =       0.35 seconds =       0.01 minutes
	system time =       0.39 seconds =       0.01 minutes
	total time  =          4 seconds =       0.07 minutes
Total time:
	user time   =       0.65 seconds =       0.01 minutes
	system time =       0.44 seconds =       0.01 minutes
	total time  =          5 seconds =       0.08 minutes

*** tstart() called on compute-0-0.local
*** at Tue Aug 15 00:52:38 2017

            **************************
            *                        *
            *        CCTRIPLES       *
            *                        *
            **************************


    Wave function   =    CCSD_T
    Reference wfn   =      RHF

    Nuclear Rep. energy (wfn)                =    2.822278445813333
    SCF energy          (wfn)                =  -43.700294461363661
    Reference energy    (file100)            =  -43.700294461363619
    CCSD energy         (file100)            =   -0.137946784731041
    Total CCSD energy   (file100)            =  -43.838241246094661

    Number of ijk index combinations:               10
    Memory available in words        :      3000000000
    ~Words needed per explicit thread:             500
    Number of threads for explicit ijk threading:    1

    (T) energy                                =   -0.000002131705977
      * CCSD(T) total energy                  =  -43.838243377800637


*** tstop() called on compute-0-0.local at Tue Aug 15 00:52:38 2017
Module time:
	user time   =       0.01 seconds =       0.00 minutes
	system time =       0.02 seconds =       0.00 minutes
	total time  =          0 seconds =       0.00 minutes
Total time:
	user time   =       0.66 seconds =       0.01 minutes
	system time =       0.46 seconds =       0.01 minutes
	total time  =          5 seconds =       0.08 minutes

*** Psi4 exiting successfully. Buy a developer a beer!
