    -----------------------------------------------------------------------
          Psi4: An Open-Source Ab Initio Electronic Structure Package
                              Psi4 1.0.0 Driver

                          Git: Rev {master} 6a9a71b dirty

    J. M. Turney, A. C. Simmonett, R. M. Parrish, E. G. Hohenstein,
    F. A. Evangelista, J. T. Fermann, B. J. Mintz, L. A. Burns, J. J. Wilke,
    M. L. Abrams, N. J. Russ, M. L. Leininger, C. L. Janssen, E. T. Seidl,
    W. D. Allen, H. F. Schaefer, R. A. King, E. F. Valeev, C. D. Sherrill,
    and T. D. Crawford, WIREs Comput. Mol. Sci. 2, 556-565 (2012)
    (doi: 10.1002/wcms.93)

                         Additional Contributions by
    A. E. DePrince, U. Bozkaya, A. Yu. Sokolov, D. G. A. Smith, R. Di Remigio,
    R. M. Richard, J. F. Gonthier, H. R. McAlexander, M. Saitow, and
    B. P. Pritchard
    -----------------------------------------------------------------------


    Psi4 started on: Fri Jul 28 09:55:48 2017

    Process ID:  12147
    PSI4DATADIR: /home/yhliu/psi4conda/share/psi4
    Memory level set to 256.000 MB

  ==> Input File <==

--------------------------------------------------------------------------

memory 10 Gb
molecule be2 {
0 1
Be  0.0  0.0  0.0
Be  0.0  0.0  1.400 
Be  0.0  0.0  2.800 
units angstrom    
}

set basis 6-31g
set freeze_core true
set PRINT_BASIS True
set PUREAM False
set E_CONVERGENCE 1e-14
energy('fci')
--------------------------------------------------------------------------
/home/yhliu/psi4conda/lib/python2.7/site-packages/v2rdm_casscf/v2rdm_casscf.so loaded.

  Memory set to  10.000 GiB by Python script.

*** tstart() called on compute-0-1.local
*** at Fri Jul 28 09:55:48 2017


         ---------------------------------------------------------
                                   SCF
            by Justin Turney, Rob Parrish, and Andy Simmonett
                              RHF Reference
                        1 Threads,  10000 MiB Core
         ---------------------------------------------------------

  ==> Geometry <==

    Molecular point group: d2h
    Full point group: D_inf_h

    Geometry (in Angstrom), charge = 0, multiplicity = 1:

       Center              X                  Y                   Z               Mass       
    ------------   -----------------  -----------------  -----------------  -----------------
          BE          0.000000000000     0.000000000000    -1.400000000000     9.012182201000
          BE          0.000000000000     0.000000000000     0.000000000000     9.012182201000
          BE          0.000000000000     0.000000000000     1.400000000000     9.012182201000

  Running in d2h symmetry.

  Rotational constants: A = ************  B =      0.47718  C =      0.47718 [cm^-1]
  Rotational constants: A = ************  B =  14305.43820  C =  14305.43820 [MHz]
  Nuclear repulsion =   15.119348816857153

  Charge       = 0
  Multiplicity = 1
  Electrons    = 12
  Nalpha       = 6
  Nbeta        = 6

  ==> Algorithm <==

  SCF Algorithm Type is PK.
  DIIS enabled.
  MOM disabled.
  Fractional occupation disabled.
  Guess Type is SAD.
  Energy threshold   = 1.00e-14
  Density threshold  = 1.00e-08
  Integral threshold = 0.00e+00

  ==> Primary Basis <==

  Basis Set: 6-31G
    Number of shells: 15
    Number of basis function: 27
    Number of Cartesian functions: 27
    Spherical Harmonics?: false
    Max angular momentum: 1

  -AO BASIS SET INFORMATION:
    Name                   = 6-31G
    Total number of shells = 15
    Number of primitives   = 42
    Number of AO           = 27
    Number of SO           = 27
    Maximum AM             = 1
    Spherical Harmonics    = FALSE

  -Contraction Scheme:
    Atom   Type   All Primitives // Shells:
   ------ ------ --------------------------
       1    BE     10s 4p // 3s 2p 
       2    BE     10s 4p // 3s 2p 
       3    BE     10s 4p // 3s 2p 

  ==> AO Basis Functions <==

    [ 6-31G ]
    cartesian
    ****
   BE   1
    S   6 1.00
                      1264.58570000           0.00194480
                       189.93681000           0.01483510
                        43.15908900           0.07209060
                        12.09866300           0.23715420
                         3.80632320           0.46919870
                         1.27289030           0.35652020
    S   3 1.00
                         3.19646310          -0.11264870
                         0.74781330          -0.22950640
                         0.21996630           1.18691670
    P   3 1.00
                         3.19646310           0.05598020
                         0.74781330           0.26155060
                         0.21996630           0.79397230
    S   1 1.00
                         0.08230990           1.00000000
    P   1 1.00
                         0.08230990           1.00000000
    ****
   BE   2
    S   6 1.00
                      1264.58570000           0.00194480
                       189.93681000           0.01483510
                        43.15908900           0.07209060
                        12.09866300           0.23715420
                         3.80632320           0.46919870
                         1.27289030           0.35652020
    S   3 1.00
                         3.19646310          -0.11264870
                         0.74781330          -0.22950640
                         0.21996630           1.18691670
    P   3 1.00
                         3.19646310           0.05598020
                         0.74781330           0.26155060
                         0.21996630           0.79397230
    S   1 1.00
                         0.08230990           1.00000000
    P   1 1.00
                         0.08230990           1.00000000
    ****

  ==> Pre-Iterations <==

   -------------------------------------------------------
    Irrep   Nso     Nmo     Nalpha   Nbeta   Ndocc  Nsocc
   -------------------------------------------------------
     Ag         8       8       0       0       0       0
     B1g        0       0       0       0       0       0
     B2g        2       2       0       0       0       0
     B3g        2       2       0       0       0       0
     Au         0       0       0       0       0       0
     B1u        7       7       0       0       0       0
     B2u        4       4       0       0       0       0
     B3u        4       4       0       0       0       0
   -------------------------------------------------------
    Total      27      27       6       6       6       0
   -------------------------------------------------------

  ==> Integral Setup <==

  Using in-core PK algorithm.
   Calculation information:
      Number of atoms:                   3
      Number of AO shells:              15
      Number of primitives:             42
      Number of atomic orbitals:        27
      Number of basis functions:        27

      Integral cutoff                 1.00e-12
      Number of threads:                 1

  Performing in-core PK
  Using 143262 doubles for integral storage.
  We computed 7259 shell quartets total.
  Whereas there are 7260 unique shell quartets.
  ==> DiskJK: Disk-Based J/K Matrices <==

    J tasked:                  Yes
    K tasked:                  Yes
    wK tasked:                  No
    Memory (MB):              7152
    Schwarz Cutoff:          1E-12

    OpenMP threads:              1
  Minimum eigenvalue in the overlap matrix is 1.4429899963E-04.
  Using Symmetric Orthogonalization.
  SCF Guess: Superposition of Atomic Densities via on-the-fly atomic UHF.

  ==> Iterations <==

                        Total Energy        Delta E     RMS |[F,P]|

   @RHF iter   0:   -44.73725675157066   -4.47373e+01   1.50608e-01 
   @RHF iter   1:   -43.41171602366248    1.32554e+00   7.26580e-03 
   @RHF iter   2:   -43.42067689672955   -8.96087e-03   2.11242e-03 DIIS
   @RHF iter   3:   -43.42232640558630   -1.64951e-03   7.12886e-04 DIIS
   @RHF iter   4:   -43.42261602044325   -2.89615e-04   1.83483e-04 DIIS
   @RHF iter   5:   -43.42263610290315   -2.00825e-05   5.53131e-05 DIIS
   @RHF iter   6:   -43.42263758955594   -1.48665e-06   7.95347e-06 DIIS
   @RHF iter   7:   -43.42263761849929   -2.89434e-08   1.68745e-06 DIIS
   @RHF iter   8:   -43.42263761975578   -1.25649e-09   1.75406e-07 DIIS
   @RHF iter   9:   -43.42263761976516   -9.37916e-12   1.60024e-08 DIIS
   @RHF iter  10:   -43.42263761976522   -5.68434e-14   2.17789e-09 DIIS
   @RHF iter  11:   -43.42263761976518    3.55271e-14   1.18590e-10 DIIS
   @RHF iter  12:   -43.42263761976521   -2.84217e-14   1.64915e-11 DIIS
   @RHF iter  13:   -43.42263761976522   -7.10543e-15   2.79851e-12 DIIS

  ==> Post-Iterations <==

    Orbital Energies (a.u.)
    -----------------------

    Doubly Occupied:                                                      

       1Ag    -4.696771     1B1u   -4.695386     2Ag    -4.635124  
       3Ag    -0.438857     2B1u   -0.323840     1B3u   -0.224436  

    Virtual:                                                              

       1B2u    0.013057     4Ag     0.037871     3B1u    0.072171  
       1B2g    0.092149     1B3g    0.111246     2B3u    0.252298  
       2B2u    0.253540     4B1u    0.281817     5Ag     0.311801  
       6Ag     0.385334     3B2u    0.400508     3B3u    0.409531  
       2B3g    0.466621     2B2g    0.467772     5B1u    0.509067  
       7Ag     0.607439     6B1u    0.668327     4B2u    0.674696  
       4B3u    0.679171     8Ag     1.364914     7B1u    1.726782  

    Final Occupation by Irrep:
             Ag   B1g   B2g   B3g    Au   B1u   B2u   B3u 
    DOCC [     3,    0,    0,    0,    0,    2,    0,    1 ]

  Energy converged.

  @RHF Final Energy:   -43.42263761976522

   => Energetics <=

    Nuclear Repulsion Energy =             15.1193488168571530
    One-Electron Energy =                 -87.0551416414453598
    Two-Electron Energy =                  28.5131552048229828
    DFT Exchange-Correlation Energy =       0.0000000000000000
    Empirical Dispersion Energy =           0.0000000000000000
    PCM Polarization Energy =               0.0000000000000000
    EFP Energy =                            0.0000000000000000
    Total Energy =                        -43.4226376197652257


  Saving occupied orbitals to File 180.

*** tstop() called on compute-0-1.local at Fri Jul 28 09:55:49 2017
Module time:
	user time   =       0.28 seconds =       0.00 minutes
	system time =       0.01 seconds =       0.00 minutes
	total time  =          1 seconds =       0.02 minutes
Total time:
	user time   =       0.28 seconds =       0.00 minutes
	system time =       0.01 seconds =       0.00 minutes
	total time  =          1 seconds =       0.02 minutes


Properties will be evaluated at   0.000000,   0.000000,   0.000000 Bohr

Properties computed using the SCF density matrix

  Nuclear Dipole Moment: (a.u.)
     X:     0.0000      Y:     0.0000      Z:     0.0000

  Electronic Dipole Moment: (a.u.)
     X:     0.0000      Y:     0.0000      Z:     0.0000

  Dipole Moment: (a.u.)
     X:     0.0000      Y:     0.0000      Z:     0.0000     Total:     0.0000

  Dipole Moment: (Debye)
     X:     0.0000      Y:     0.0000      Z:     0.0000     Total:     0.0000

 MINTS: Wrapper to libmints.
   by Justin Turney

   Calculation information:
      Number of atoms:                   3
      Number of AO shells:              15
      Number of SO shells:              10
      Number of primitives:             42
      Number of atomic orbitals:        27
      Number of basis functions:        27

      Number of irreps:                  8
      Integral cutoff                 0.00e+00
      Number of functions per irrep: [   8    0    2    2    0    7    4    4 ]

 OEINTS: Overlap, kinetic, potential, dipole, and quadrupole integrals
         stored in file 35.

      Computing two-electron integrals...done
      Computed 11211 non-zero two-electron integrals.
        Stored in file 33.


         ---------------------------------------------------------
                                 D E T C I  

                             C. David Sherrill
                             Matt L. Leininger
                               18 June 1999
         ---------------------------------------------------------


DETCI PARAMETERS: 
   EX LEVEL      =        6      H0 BLOCKSIZE =     1000
   VAL EX LEVEL  =        0      H0 GUESS SIZE=     1000
   H0COUPLINGSIZE=        0      H0 COUPLING  =       no
   MAXITER       =       24      NUM PRINT    =       20
   NUM ROOTS     =        1      ICORE        =        1
   PRINT         =        1      FCI          =      yes
   R CONV        = 1.00e-04      MIXED        =      yes
   E CONV        = 1.00e-14      MIXED4       =      yes
   R4S           =       no      REPL OTF     =       no
   DIAG METHOD   =      SEM
   PRECONDITIONER= DAVIDSON      UPDATE       = DAVIDSON
   S             =   0.0000      Ms0          =      yes
   MAX NUM VECS  =       25
   RESTART       =       no
   GUESS VECTOR  =  H0BLOCK      OPENTYPE     =     NONE
   REF SYM       =     auto
   COLLAPSE SIZE =        1      HD AVG       = EVANGELISTI
   LSE           =       no      LSE ITER     =        0
   HD OTF        =      yes      NO DFILE     =       no
   MPN           =       no      MPN SCHMIDT  =       no
   ZAPTN         =       no      MPN WIGNER   =       no
   PERT Z        =   1.0000      FOLLOW ROOT  =        0
   NUM THREADS   =        1
   FILTER GUESS  =       no      SF RESTRICT  =       no
   OPDM          =       no      TRANS DENSITY=       no

   FILES         =  50 51 52 53

   EX ALLOW      =  1  1  1  1  1  1 
   STATE AVERAGE =  1(1.00) 

ORBITALS:
   NMO          =       27
   FROZEN CORE  =        3      RESTR CORE   =        0
   FROZEN VIRT  =        0      RESTR VIRT   =        0
   DROPPED CORE =        3      DROPPED VIRT =        0
   EXPLICIT CORE=        0      ORBS IN CI   =       24
   NUM ALP      =        6      NUM BET      =        6
   NUM ALP EXPL =        3      NUM BET EXPL =        3
   IOPEN        =       no

   DOCC            =   3   0   0   0   0   2   0   1 
   SOCC            =   0   0   0   0   0   0   0   0 

   FROZEN DOCC     =   2   0   0   0   0   1   0   0 
   RESTRICTED DOCC =   0   0   0   0   0   0   0   0 
   ACTIVE          =   6   0   2   2   0   6   4   4 
   RESTRICTED UOCC =   0   0   0   0   0   0   0   0 
   FROZEN UOCC     =   0   0   0   0   0   0   0   0 
         ---------------------------------------------------------


   ==> Setting up CI strings <==

   There are 2024 alpha and 2024 beta strings
   The CI space requires 517872 (5.18E+05) determinants and 8 blocks


   ==> Transforming CI integrals <==
	Presorting SO-basis two-electron integrals.
	Sorting File: SO Ints (nn|nn) nbuckets = 1
	Transforming the one-electron integrals and constructing Fock matrices
	Starting first half-transformation.
	Sorting half-transformed integrals.
	First half integral transformation complete.
	Starting second half-transformation.
	Two-electron integral transformation complete.

*** H0 Block Eigenvalue = -43.52057083

Find the roots by the Simultaneous Expansion Method (Block Davidson Method)
Using 1 initial trial vectors
Iter  0  Root  1 = -43.520570834   Delta_E -6.472E+00   Delta_C  1.867E-01  
Iter  1  Root  1 = -43.543478589   Delta_E -2.291E-02   Delta_C  5.914E-02  
Iter  2  Root  1 = -43.545601748   Delta_E -2.123E-03   Delta_C  3.127E-02  
Iter  3  Root  1 = -43.546243679   Delta_E -6.419E-04   Delta_C  1.438E-02  
Iter  4  Root  1 = -43.546388754   Delta_E -1.451E-04   Delta_C  7.320E-03  
Iter  5  Root  1 = -43.546426850   Delta_E -3.810E-05   Delta_C  4.312E-03  
Iter  6  Root  1 = -43.546441218   Delta_E -1.437E-05   Delta_C  3.474E-03  
Iter  7  Root  1 = -43.546452891   Delta_E -1.167E-05   Delta_C  3.750E-03  
Iter  8  Root  1 = -43.546472584   Delta_E -1.969E-05   Delta_C  5.277E-03  
Iter  9  Root  1 = -43.546511832   Delta_E -3.925E-05   Delta_C  7.315E-03  
Iter 10  Root  1 = -43.546578445   Delta_E -6.661E-05   Delta_C  8.962E-03  
Iter 11  Root  1 = -43.546679741   Delta_E -1.013E-04   Delta_C  1.150E-02  
Iter 12  Root  1 = -43.546834620   Delta_E -1.549E-04   Delta_C  1.473E-02  
Iter 13  Root  1 = -43.547054132   Delta_E -2.195E-04   Delta_C  1.555E-02  
Iter 14  Root  1 = -43.547254489   Delta_E -2.004E-04   Delta_C  1.291E-02  
Iter 15  Root  1 = -43.547369670   Delta_E -1.152E-04   Delta_C  9.337E-03  
Iter 16  Root  1 = -43.547426735   Delta_E -5.707E-05   Delta_C  6.340E-03  
Iter 17  Root  1 = -43.547452133   Delta_E -2.540E-05   Delta_C  4.170E-03  
Iter 18  Root  1 = -43.547462388   Delta_E -1.026E-05   Delta_C  2.691E-03  
Iter 19  Root  1 = -43.547466506   Delta_E -4.118E-06   Delta_C  1.717E-03  
Iter 20  Root  1 = -43.547468260   Delta_E -1.754E-06   Delta_C  1.105E-03  
Iter 21  Root  1 = -43.547469023   Delta_E -7.628E-07   Delta_C  7.471E-04  
Iter 22  Root  1 = -43.547469360   Delta_E -3.374E-07   Delta_C  4.950E-04  
Iter 23  Root  1 = -43.547469504   Delta_E -1.438E-07   Delta_C  3.036E-04  
Iter 24  Root  1 = -43.547469556   Delta_E -5.184E-08   Delta_C  1.803E-04  

Maximum number of CI iterations reached

* ROOT 1 CI total energy = -43.5474695558700


The 20 most important determinants

    1   -0.616938  ( 1762, 1762)  3AgX  2B1uX  1B3uX  
    2   -0.602763  ( 1562, 1562)  3AgX  2B1uX  1B2uX  
    3    0.172107  ( 1030, 1030)  3AgX  1B3uX  1B2uX  
    4    0.144107  (  326,  326)  2B1uX  1B3uX  1B2uX  
    5    0.100134  (  521,  521)  3AgX  2B1uX  1B2gX  
    6    0.096772  (  750,  750)  3AgX  2B1uX  1B3gX  
    7   -0.078188  ( 1562, 1640)  3AgX  2B1uX  1B2uA  3B2uB  
    8   -0.078188  ( 1640, 1562)  3AgX  2B1uX  1B2uB  3B2uA  
    9    0.067990  (    0,    0)  3AgX  2B1uX  4AgX  
   10    0.066505  ( 1800, 1800)  3AgX  1B3uX  3B1uX  
   11    0.064749  ( 1570, 1570)  3AgX  3B1uX  1B2uX  
   12   -0.057072  (  326,  327)  3AgB  2B1uA  1B3uA  1B2gB  1B2uX  
   13   -0.057072  (  327,  326)  3AgA  2B1uB  1B3uB  1B2gA  1B2uX  
   14   -0.057027  ( 1562, 1600)  3AgX  2B1uX  1B2uA  2B2uB  
   15   -0.057027  ( 1600, 1562)  3AgX  2B1uX  1B2uB  2B2uA  
   16   -0.056091  (  290,  326)  3AgA  2B1uB  1B3uX  1B3gA  1B2uB  
   17   -0.056091  (  326,  290)  3AgB  2B1uA  1B3uX  1B3gB  1B2uA  
   18   -0.045430  ( 1030, 1036)  3AgA  2B1uB  1B3uA  1B2gB  1B2uX  
   19   -0.045430  ( 1036, 1030)  3AgB  2B1uA  1B3uB  1B2gA  1B2uX  
   20   -0.045123  (  994, 1030)  3AgB  2B1uA  1B3uX  1B3gA  1B2uB  


An error has occurred python-side. Traceback (most recent call last):

  File "<string>", line 39, in <module>

  File "/home/yhliu/psi4conda/share/psi4/python/driver.py", line 446, in energy
    wfn = procedures['energy'][lowername](lowername, molecule=molecule, **kwargs)

  File "/home/yhliu/psi4conda/share/psi4/python/procedures/proc.py", line 2595, in run_detci
    ci_wfn = psi4.detci(ref_wfn)

RuntimeError: 
Fatal Error: CIWavefunction: Iterations did not converge!
Error occurred in file: /scratch/cdsgroup/conda-builds/work/src/bin/detci/ciwave.cc on line: 364
The most recent 5 function calls were:

psi::PsiException::PsiException(std::string, char const*, int)
psi::detci::CIWavefunction::convergence_death()
psi::detci::CIWavefunction::diag_h()
psi::detci::CIWavefunction::compute_energy()
psi::detci::detci(boost::shared_ptr<psi::Wavefunction>, psi::Options&)



