    -----------------------------------------------------------------------
          Psi4: An Open-Source Ab Initio Electronic Structure Package
                              Psi4 1.0.0 Driver

                          Git: Rev {master} 6a9a71b dirty

    J. M. Turney, A. C. Simmonett, R. M. Parrish, E. G. Hohenstein,
    F. A. Evangelista, J. T. Fermann, B. J. Mintz, L. A. Burns, J. J. Wilke,
    M. L. Abrams, N. J. Russ, M. L. Leininger, C. L. Janssen, E. T. Seidl,
    W. D. Allen, H. F. Schaefer, R. A. King, E. F. Valeev, C. D. Sherrill,
    and T. D. Crawford, WIREs Comput. Mol. Sci. 2, 556-565 (2012)
    (doi: 10.1002/wcms.93)

                         Additional Contributions by
    A. E. DePrince, U. Bozkaya, A. Yu. Sokolov, D. G. A. Smith, R. Di Remigio,
    R. M. Richard, J. F. Gonthier, H. R. McAlexander, M. Saitow, and
    B. P. Pritchard
    -----------------------------------------------------------------------


    Psi4 started on: Fri Jul 28 09:56:01 2017

    Process ID:  12148
    PSI4DATADIR: /home/yhliu/psi4conda/share/psi4
    Memory level set to 256.000 MB

  ==> Input File <==

--------------------------------------------------------------------------

memory 10 Gb
molecule be2 {
0 1
Be  0.0  0.0  0.0
Be  0.0  0.0  1.500 
Be  0.0  0.0  3.000 
units angstrom    
}

set basis 6-31g
set freeze_core true
set PRINT_BASIS True
set PUREAM False
set E_CONVERGENCE 1e-14
energy('fci')
--------------------------------------------------------------------------
/home/yhliu/psi4conda/lib/python2.7/site-packages/v2rdm_casscf/v2rdm_casscf.so loaded.

  Memory set to  10.000 GiB by Python script.

*** tstart() called on compute-0-1.local
*** at Fri Jul 28 09:56:02 2017


         ---------------------------------------------------------
                                   SCF
            by Justin Turney, Rob Parrish, and Andy Simmonett
                              RHF Reference
                        1 Threads,  10000 MiB Core
         ---------------------------------------------------------

  ==> Geometry <==

    Molecular point group: d2h
    Full point group: D_inf_h

    Geometry (in Angstrom), charge = 0, multiplicity = 1:

       Center              X                  Y                   Z               Mass       
    ------------   -----------------  -----------------  -----------------  -----------------
          BE          0.000000000000     0.000000000000    -1.500000000000     9.012182201000
          BE          0.000000000000     0.000000000000     0.000000000000     9.012182201000
          BE          0.000000000000     0.000000000000     1.500000000000     9.012182201000

  Running in d2h symmetry.

  Rotational constants: A = ************  B =      0.41568  C =      0.41568 [cm^-1]
  Rotational constants: A = ************  B =  12461.62617  C =  12461.62617 [MHz]
  Nuclear repulsion =   14.111392229066674

  Charge       = 0
  Multiplicity = 1
  Electrons    = 12
  Nalpha       = 6
  Nbeta        = 6

  ==> Algorithm <==

  SCF Algorithm Type is PK.
  DIIS enabled.
  MOM disabled.
  Fractional occupation disabled.
  Guess Type is SAD.
  Energy threshold   = 1.00e-14
  Density threshold  = 1.00e-08
  Integral threshold = 0.00e+00

  ==> Primary Basis <==

  Basis Set: 6-31G
    Number of shells: 15
    Number of basis function: 27
    Number of Cartesian functions: 27
    Spherical Harmonics?: false
    Max angular momentum: 1

  -AO BASIS SET INFORMATION:
    Name                   = 6-31G
    Total number of shells = 15
    Number of primitives   = 42
    Number of AO           = 27
    Number of SO           = 27
    Maximum AM             = 1
    Spherical Harmonics    = FALSE

  -Contraction Scheme:
    Atom   Type   All Primitives // Shells:
   ------ ------ --------------------------
       1    BE     10s 4p // 3s 2p 
       2    BE     10s 4p // 3s 2p 
       3    BE     10s 4p // 3s 2p 

  ==> AO Basis Functions <==

    [ 6-31G ]
    cartesian
    ****
   BE   1
    S   6 1.00
                      1264.58570000           0.00194480
                       189.93681000           0.01483510
                        43.15908900           0.07209060
                        12.09866300           0.23715420
                         3.80632320           0.46919870
                         1.27289030           0.35652020
    S   3 1.00
                         3.19646310          -0.11264870
                         0.74781330          -0.22950640
                         0.21996630           1.18691670
    P   3 1.00
                         3.19646310           0.05598020
                         0.74781330           0.26155060
                         0.21996630           0.79397230
    S   1 1.00
                         0.08230990           1.00000000
    P   1 1.00
                         0.08230990           1.00000000
    ****
   BE   2
    S   6 1.00
                      1264.58570000           0.00194480
                       189.93681000           0.01483510
                        43.15908900           0.07209060
                        12.09866300           0.23715420
                         3.80632320           0.46919870
                         1.27289030           0.35652020
    S   3 1.00
                         3.19646310          -0.11264870
                         0.74781330          -0.22950640
                         0.21996630           1.18691670
    P   3 1.00
                         3.19646310           0.05598020
                         0.74781330           0.26155060
                         0.21996630           0.79397230
    S   1 1.00
                         0.08230990           1.00000000
    P   1 1.00
                         0.08230990           1.00000000
    ****

  ==> Pre-Iterations <==

   -------------------------------------------------------
    Irrep   Nso     Nmo     Nalpha   Nbeta   Ndocc  Nsocc
   -------------------------------------------------------
     Ag         8       8       0       0       0       0
     B1g        0       0       0       0       0       0
     B2g        2       2       0       0       0       0
     B3g        2       2       0       0       0       0
     Au         0       0       0       0       0       0
     B1u        7       7       0       0       0       0
     B2u        4       4       0       0       0       0
     B3u        4       4       0       0       0       0
   -------------------------------------------------------
    Total      27      27       6       6       6       0
   -------------------------------------------------------

  ==> Integral Setup <==

  Using in-core PK algorithm.
   Calculation information:
      Number of atoms:                   3
      Number of AO shells:              15
      Number of primitives:             42
      Number of atomic orbitals:        27
      Number of basis functions:        27

      Integral cutoff                 1.00e-12
      Number of threads:                 1

  Performing in-core PK
  Using 143262 doubles for integral storage.
  We computed 7253 shell quartets total.
  Whereas there are 7260 unique shell quartets.
  ==> DiskJK: Disk-Based J/K Matrices <==

    J tasked:                  Yes
    K tasked:                  Yes
    wK tasked:                  No
    Memory (MB):              7152
    Schwarz Cutoff:          1E-12

    OpenMP threads:              1
  Minimum eigenvalue in the overlap matrix is 2.5701838860E-04.
  Using Symmetric Orthogonalization.
  SCF Guess: Superposition of Atomic Densities via on-the-fly atomic UHF.

  ==> Iterations <==

                        Total Energy        Delta E     RMS |[F,P]|

   @RHF iter   0:   -44.63940118169526   -4.46394e+01   1.32248e-01 
   @RHF iter   1:   -43.49429642184581    1.14510e+00   7.50265e-03 
   @RHF iter   2:   -43.50507361830653   -1.07772e-02   2.27202e-03 DIIS
   @RHF iter   3:   -43.50704486580517   -1.97125e-03   7.20706e-04 DIIS
   @RHF iter   4:   -43.50736174935282   -3.16884e-04   1.69614e-04 DIIS
   @RHF iter   5:   -43.50737865377187   -1.69044e-05   5.65437e-05 DIIS
   @RHF iter   6:   -43.50738022841560   -1.57464e-06   9.77908e-06 DIIS
   @RHF iter   7:   -43.50738027612084   -4.77052e-08   1.99252e-06 DIIS
   @RHF iter   8:   -43.50738027782871   -1.70787e-09   1.69900e-07 DIIS
   @RHF iter   9:   -43.50738027783671   -8.00071e-12   1.72706e-08 DIIS
   @RHF iter  10:   -43.50738027783678   -7.10543e-14   2.65199e-09 DIIS
   @RHF iter  11:   -43.50738027783677    7.10543e-15   1.09848e-10 DIIS

  ==> Post-Iterations <==

    Orbital Energies (a.u.)
    -----------------------

    Doubly Occupied:                                                      

       1Ag    -4.693474     1B1u   -4.693086     2Ag    -4.620564  
       3Ag    -0.433408     2B1u   -0.329510     1B2u   -0.205726  

    Virtual:                                                              

       1B3u    0.021539     4Ag     0.031290     3B1u    0.064422  
       1B3g    0.085491     1B2g    0.106889     2B2u    0.249834  
       2B3u    0.250367     4B1u    0.283465     5Ag     0.311509  
       6Ag     0.381924     3B3u    0.408972     3B2u    0.415892  
       2B2g    0.471205     2B3g    0.473063     5B1u    0.500975  
       7Ag     0.588120     4B3u    0.649314     4B2u    0.653791  
       6B1u    0.680192     8Ag     1.178173     7B1u    1.480559  

    Final Occupation by Irrep:
             Ag   B1g   B2g   B3g    Au   B1u   B2u   B3u 
    DOCC [     3,    0,    0,    0,    0,    2,    1,    0 ]

  Energy converged.

  @RHF Final Energy:   -43.50738027783677

   => Energetics <=

    Nuclear Repulsion Energy =             14.1113922290666736
    One-Electron Energy =                 -85.2860108897466915
    Two-Electron Energy =                  27.6672383828432444
    DFT Exchange-Correlation Energy =       0.0000000000000000
    Empirical Dispersion Energy =           0.0000000000000000
    PCM Polarization Energy =               0.0000000000000000
    EFP Energy =                            0.0000000000000000
    Total Energy =                        -43.5073802778367664


  Saving occupied orbitals to File 180.

*** tstop() called on compute-0-1.local at Fri Jul 28 09:56:02 2017
Module time:
	user time   =       0.28 seconds =       0.00 minutes
	system time =       0.02 seconds =       0.00 minutes
	total time  =          0 seconds =       0.00 minutes
Total time:
	user time   =       0.28 seconds =       0.00 minutes
	system time =       0.02 seconds =       0.00 minutes
	total time  =          0 seconds =       0.00 minutes


Properties will be evaluated at   0.000000,   0.000000,   0.000000 Bohr

Properties computed using the SCF density matrix

  Nuclear Dipole Moment: (a.u.)
     X:     0.0000      Y:     0.0000      Z:     0.0000

  Electronic Dipole Moment: (a.u.)
     X:     0.0000      Y:     0.0000      Z:     0.0000

  Dipole Moment: (a.u.)
     X:     0.0000      Y:     0.0000      Z:     0.0000     Total:     0.0000

  Dipole Moment: (Debye)
     X:     0.0000      Y:     0.0000      Z:     0.0000     Total:     0.0000

 MINTS: Wrapper to libmints.
   by Justin Turney

   Calculation information:
      Number of atoms:                   3
      Number of AO shells:              15
      Number of SO shells:              10
      Number of primitives:             42
      Number of atomic orbitals:        27
      Number of basis functions:        27

      Number of irreps:                  8
      Integral cutoff                 0.00e+00
      Number of functions per irrep: [   8    0    2    2    0    7    4    4 ]

 OEINTS: Overlap, kinetic, potential, dipole, and quadrupole integrals
         stored in file 35.

      Computing two-electron integrals...done
      Computed 11211 non-zero two-electron integrals.
        Stored in file 33.


         ---------------------------------------------------------
                                 D E T C I  

                             C. David Sherrill
                             Matt L. Leininger
                               18 June 1999
         ---------------------------------------------------------


DETCI PARAMETERS: 
   EX LEVEL      =        6      H0 BLOCKSIZE =     1000
   VAL EX LEVEL  =        0      H0 GUESS SIZE=     1000
   H0COUPLINGSIZE=        0      H0 COUPLING  =       no
   MAXITER       =       24      NUM PRINT    =       20
   NUM ROOTS     =        1      ICORE        =        1
   PRINT         =        1      FCI          =      yes
   R CONV        = 1.00e-04      MIXED        =      yes
   E CONV        = 1.00e-14      MIXED4       =      yes
   R4S           =       no      REPL OTF     =       no
   DIAG METHOD   =      SEM
   PRECONDITIONER= DAVIDSON      UPDATE       = DAVIDSON
   S             =   0.0000      Ms0          =      yes
   MAX NUM VECS  =       25
   RESTART       =       no
   GUESS VECTOR  =  H0BLOCK      OPENTYPE     =     NONE
   REF SYM       =     auto
   COLLAPSE SIZE =        1      HD AVG       = EVANGELISTI
   LSE           =       no      LSE ITER     =        0
   HD OTF        =      yes      NO DFILE     =       no
   MPN           =       no      MPN SCHMIDT  =       no
   ZAPTN         =       no      MPN WIGNER   =       no
   PERT Z        =   1.0000      FOLLOW ROOT  =        0
   NUM THREADS   =        1
   FILTER GUESS  =       no      SF RESTRICT  =       no
   OPDM          =       no      TRANS DENSITY=       no

   FILES         =  50 51 52 53

   EX ALLOW      =  1  1  1  1  1  1 
   STATE AVERAGE =  1(1.00) 

ORBITALS:
   NMO          =       27
   FROZEN CORE  =        3      RESTR CORE   =        0
   FROZEN VIRT  =        0      RESTR VIRT   =        0
   DROPPED CORE =        3      DROPPED VIRT =        0
   EXPLICIT CORE=        0      ORBS IN CI   =       24
   NUM ALP      =        6      NUM BET      =        6
   NUM ALP EXPL =        3      NUM BET EXPL =        3
   IOPEN        =       no

   DOCC            =   3   0   0   0   0   2   1   0 
   SOCC            =   0   0   0   0   0   0   0   0 

   FROZEN DOCC     =   2   0   0   0   0   1   0   0 
   RESTRICTED DOCC =   0   0   0   0   0   0   0   0 
   ACTIVE          =   6   0   2   2   0   6   4   4 
   RESTRICTED UOCC =   0   0   0   0   0   0   0   0 
   FROZEN UOCC     =   0   0   0   0   0   0   0   0 
         ---------------------------------------------------------


   ==> Setting up CI strings <==

   There are 2024 alpha and 2024 beta strings
   The CI space requires 517872 (5.18E+05) determinants and 8 blocks


   ==> Transforming CI integrals <==
	Presorting SO-basis two-electron integrals.
	Sorting File: SO Ints (nn|nn) nbuckets = 1
	Transforming the one-electron integrals and constructing Fock matrices
	Starting first half-transformation.
	Sorting half-transformed integrals.
	First half integral transformation complete.
	Starting second half-transformation.
	Two-electron integral transformation complete.

*** H0 Block Eigenvalue = -43.60264380

Find the roots by the Simultaneous Expansion Method (Block Davidson Method)
Using 1 initial trial vectors
Iter  0  Root  1 = -43.602643800   Delta_E -6.303E+00   Delta_C  1.862E-01  
Iter  1  Root  1 = -43.626219711   Delta_E -2.358E-02   Delta_C  5.774E-02  
Iter  2  Root  1 = -43.628291008   Delta_E -2.071E-03   Delta_C  2.979E-02  
Iter  3  Root  1 = -43.628877464   Delta_E -5.865E-04   Delta_C  1.403E-02  
Iter  4  Root  1 = -43.629016179   Delta_E -1.387E-04   Delta_C  7.278E-03  
Iter  5  Root  1 = -43.629050792   Delta_E -3.461E-05   Delta_C  4.393E-03  
Iter  6  Root  1 = -43.629062532   Delta_E -1.174E-05   Delta_C  3.037E-03  
Iter  7  Root  1 = -43.629070818   Delta_E -8.286E-06   Delta_C  2.585E-03  
Iter  8  Root  1 = -43.629078893   Delta_E -8.074E-06   Delta_C  2.833E-03  
Iter  9  Root  1 = -43.629086937   Delta_E -8.044E-06   Delta_C  2.843E-03  
Iter 10  Root  1 = -43.629093311   Delta_E -6.374E-06   Delta_C  2.348E-03  
Iter 11  Root  1 = -43.629097540   Delta_E -4.229E-06   Delta_C  1.957E-03  
Iter 12  Root  1 = -43.629100994   Delta_E -3.454E-06   Delta_C  1.888E-03  
Iter 13  Root  1 = -43.629105195   Delta_E -4.201E-06   Delta_C  2.195E-03  
Iter 14  Root  1 = -43.629111388   Delta_E -6.193E-06   Delta_C  2.971E-03  
Iter 15  Root  1 = -43.629123597   Delta_E -1.221E-05   Delta_C  4.489E-03  
Iter 16  Root  1 = -43.629156681   Delta_E -3.308E-05   Delta_C  7.673E-03  
Iter 17  Root  1 = -43.629244888   Delta_E -8.821E-05   Delta_C  1.207E-02  
Iter 18  Root  1 = -43.629389651   Delta_E -1.448E-04   Delta_C  1.221E-02  
Iter 19  Root  1 = -43.629485156   Delta_E -9.551E-05   Delta_C  8.044E-03  
Iter 20  Root  1 = -43.629522185   Delta_E -3.703E-05   Delta_C  4.747E-03  
Iter 21  Root  1 = -43.629534917   Delta_E -1.273E-05   Delta_C  2.818E-03  
Iter 22  Root  1 = -43.629539347   Delta_E -4.430E-06   Delta_C  1.681E-03  
Iter 23  Root  1 = -43.629540928   Delta_E -1.581E-06   Delta_C  9.552E-04  
Iter 24  Root  1 = -43.629541436   Delta_E -5.087E-07   Delta_C  5.365E-04  

Maximum number of CI iterations reached

* ROOT 1 CI total energy = -43.6295414363210


The 20 most important determinants

    1   -0.615252  ( 1500, 1500)  3AgX  2B1uX  1B2uX  
    2   -0.601762  ( 1836, 1836)  3AgX  2B1uX  1B3uX  
    3    0.133815  ( 1066, 1066)  3AgX  1B2uX  1B3uX  
    4    0.132261  (  362,  362)  2B1uX  1B2uX  1B3uX  
    5    0.119418  (    0,    0)  3AgX  2B1uX  4AgX  
    6    0.113485  (  766,  766)  3AgX  2B1uX  1B3gX  
    7    0.110325  (  506,  506)  3AgX  2B1uX  1B2gX  
    8   -0.079281  ( 1836, 1926)  3AgX  2B1uX  1B3uA  3B3uB  
    9   -0.079281  ( 1926, 1836)  3AgX  2B1uX  1B3uB  3B3uA  
   10    0.068165  ( 1538, 1538)  3AgX  1B2uX  3B1uX  
   11    0.066316  ( 1844, 1844)  3AgX  3B1uX  1B3uX  
   12   -0.050787  (  362,  363)  3AgB  2B1uA  1B2uA  1B3gB  1B3uX  
   13   -0.050787  (  363,  362)  3AgA  2B1uB  1B2uB  1B3gA  1B3uX  
   14   -0.050762  ( 1836, 1880)  3AgX  2B1uX  1B3uA  2B3uB  
   15   -0.050762  ( 1880, 1836)  3AgX  2B1uX  1B3uB  2B3uA  
   16   -0.049989  (  290,  362)  3AgA  2B1uB  1B2uX  1B2gA  1B3uB  
   17   -0.049989  (  362,  290)  3AgB  2B1uA  1B2uX  1B2gB  1B3uA  
   18   -0.048297  ( 1244, 1244)  3AgX  2B1uX  3B1uX  
   19   -0.047944  (  750,  766)  3AgX  2B1uB  1B2uA  4AgA  1B3gB  
   20   -0.047944  (  766,  750)  3AgX  2B1uA  1B2uB  4AgB  1B3gA  


An error has occurred python-side. Traceback (most recent call last):

  File "<string>", line 39, in <module>

  File "/home/yhliu/psi4conda/share/psi4/python/driver.py", line 446, in energy
    wfn = procedures['energy'][lowername](lowername, molecule=molecule, **kwargs)

  File "/home/yhliu/psi4conda/share/psi4/python/procedures/proc.py", line 2595, in run_detci
    ci_wfn = psi4.detci(ref_wfn)

RuntimeError: 
Fatal Error: CIWavefunction: Iterations did not converge!
Error occurred in file: /scratch/cdsgroup/conda-builds/work/src/bin/detci/ciwave.cc on line: 364
The most recent 5 function calls were:

psi::PsiException::PsiException(std::string, char const*, int)
psi::detci::CIWavefunction::convergence_death()
psi::detci::CIWavefunction::diag_h()
psi::detci::CIWavefunction::compute_energy()
psi::detci::detci(boost::shared_ptr<psi::Wavefunction>, psi::Options&)



