    -----------------------------------------------------------------------
          Psi4: An Open-Source Ab Initio Electronic Structure Package
                              Psi4 1.0.0 Driver

                          Git: Rev {master} 6a9a71b dirty

    J. M. Turney, A. C. Simmonett, R. M. Parrish, E. G. Hohenstein,
    F. A. Evangelista, J. T. Fermann, B. J. Mintz, L. A. Burns, J. J. Wilke,
    M. L. Abrams, N. J. Russ, M. L. Leininger, C. L. Janssen, E. T. Seidl,
    W. D. Allen, H. F. Schaefer, R. A. King, E. F. Valeev, C. D. Sherrill,
    and T. D. Crawford, WIREs Comput. Mol. Sci. 2, 556-565 (2012)
    (doi: 10.1002/wcms.93)

                         Additional Contributions by
    A. E. DePrince, U. Bozkaya, A. Yu. Sokolov, D. G. A. Smith, R. Di Remigio,
    R. M. Richard, J. F. Gonthier, H. R. McAlexander, M. Saitow, and
    B. P. Pritchard
    -----------------------------------------------------------------------


    Psi4 started on: Fri Jul 28 09:57:16 2017

    Process ID:  12155
    PSI4DATADIR: /home/yhliu/psi4conda/share/psi4
    Memory level set to 256.000 MB

  ==> Input File <==

--------------------------------------------------------------------------

memory 10 Gb
molecule be2 {
0 1
Be  0.0  0.0  0.0
Be  0.0  0.0  2.200 
Be  0.0  0.0  4.400 
units angstrom    
}

set basis 6-31g
set freeze_core true
set PRINT_BASIS True
set PUREAM False
set E_CONVERGENCE 1e-14
energy('fci')
--------------------------------------------------------------------------
/home/yhliu/psi4conda/lib/python2.7/site-packages/v2rdm_casscf/v2rdm_casscf.so loaded.

  Memory set to  10.000 GiB by Python script.

*** tstart() called on compute-0-1.local
*** at Fri Jul 28 09:57:16 2017


         ---------------------------------------------------------
                                   SCF
            by Justin Turney, Rob Parrish, and Andy Simmonett
                              RHF Reference
                        1 Threads,  10000 MiB Core
         ---------------------------------------------------------

  ==> Geometry <==

    Molecular point group: d2h
    Full point group: D_inf_h

    Geometry (in Angstrom), charge = 0, multiplicity = 1:

       Center              X                  Y                   Z               Mass       
    ------------   -----------------  -----------------  -----------------  -----------------
          BE          0.000000000000     0.000000000000    -2.200000000000     9.012182201000
          BE          0.000000000000     0.000000000000     0.000000000000     9.012182201000
          BE          0.000000000000     0.000000000000     2.200000000000     9.012182201000

  Running in d2h symmetry.

  Rotational constants: A = ************  B =      0.19324  C =      0.19324 [cm^-1]
  Rotational constants: A = ************  B =   5793.11134  C =   5793.11134 [MHz]
  Nuclear repulsion =    9.621403792545456

  Charge       = 0
  Multiplicity = 1
  Electrons    = 12
  Nalpha       = 6
  Nbeta        = 6

  ==> Algorithm <==

  SCF Algorithm Type is PK.
  DIIS enabled.
  MOM disabled.
  Fractional occupation disabled.
  Guess Type is SAD.
  Energy threshold   = 1.00e-14
  Density threshold  = 1.00e-08
  Integral threshold = 0.00e+00

  ==> Primary Basis <==

  Basis Set: 6-31G
    Number of shells: 15
    Number of basis function: 27
    Number of Cartesian functions: 27
    Spherical Harmonics?: false
    Max angular momentum: 1

  -AO BASIS SET INFORMATION:
    Name                   = 6-31G
    Total number of shells = 15
    Number of primitives   = 42
    Number of AO           = 27
    Number of SO           = 27
    Maximum AM             = 1
    Spherical Harmonics    = FALSE

  -Contraction Scheme:
    Atom   Type   All Primitives // Shells:
   ------ ------ --------------------------
       1    BE     10s 4p // 3s 2p 
       2    BE     10s 4p // 3s 2p 
       3    BE     10s 4p // 3s 2p 

  ==> AO Basis Functions <==

    [ 6-31G ]
    cartesian
    ****
   BE   1
    S   6 1.00
                      1264.58570000           0.00194480
                       189.93681000           0.01483510
                        43.15908900           0.07209060
                        12.09866300           0.23715420
                         3.80632320           0.46919870
                         1.27289030           0.35652020
    S   3 1.00
                         3.19646310          -0.11264870
                         0.74781330          -0.22950640
                         0.21996630           1.18691670
    P   3 1.00
                         3.19646310           0.05598020
                         0.74781330           0.26155060
                         0.21996630           0.79397230
    S   1 1.00
                         0.08230990           1.00000000
    P   1 1.00
                         0.08230990           1.00000000
    ****
   BE   2
    S   6 1.00
                      1264.58570000           0.00194480
                       189.93681000           0.01483510
                        43.15908900           0.07209060
                        12.09866300           0.23715420
                         3.80632320           0.46919870
                         1.27289030           0.35652020
    S   3 1.00
                         3.19646310          -0.11264870
                         0.74781330          -0.22950640
                         0.21996630           1.18691670
    P   3 1.00
                         3.19646310           0.05598020
                         0.74781330           0.26155060
                         0.21996630           0.79397230
    S   1 1.00
                         0.08230990           1.00000000
    P   1 1.00
                         0.08230990           1.00000000
    ****

  ==> Pre-Iterations <==

   -------------------------------------------------------
    Irrep   Nso     Nmo     Nalpha   Nbeta   Ndocc  Nsocc
   -------------------------------------------------------
     Ag         8       8       0       0       0       0
     B1g        0       0       0       0       0       0
     B2g        2       2       0       0       0       0
     B3g        2       2       0       0       0       0
     Au         0       0       0       0       0       0
     B1u        7       7       0       0       0       0
     B2u        4       4       0       0       0       0
     B3u        4       4       0       0       0       0
   -------------------------------------------------------
    Total      27      27       6       6       6       0
   -------------------------------------------------------

  ==> Integral Setup <==

  Using in-core PK algorithm.
   Calculation information:
      Number of atoms:                   3
      Number of AO shells:              15
      Number of primitives:             42
      Number of atomic orbitals:        27
      Number of basis functions:        27

      Integral cutoff                 1.00e-12
      Number of threads:                 1

  Performing in-core PK
  Using 143262 doubles for integral storage.
  We computed 7137 shell quartets total.
  Whereas there are 7260 unique shell quartets.
  ==> DiskJK: Disk-Based J/K Matrices <==

    J tasked:                  Yes
    K tasked:                  Yes
    wK tasked:                  No
    Memory (MB):              7152
    Schwarz Cutoff:          1E-12

    OpenMP threads:              1
  Minimum eigenvalue in the overlap matrix is 5.1320713729E-03.
  Using Symmetric Orthogonalization.
  SCF Guess: Superposition of Atomic Densities via on-the-fly atomic UHF.

  ==> Iterations <==

                        Total Energy        Delta E     RMS |[F,P]|

   @RHF iter   0:   -44.05592284556271   -4.40559e+01   5.11306e-02 
   @RHF iter   1:   -43.65444702984344    4.01476e-01   5.73510e-03 
   @RHF iter   2:   -43.66652900010023   -1.20820e-02   2.25433e-03 DIIS
   @RHF iter   3:   -43.66865447116462   -2.12547e-03   1.09726e-03 DIIS
   @RHF iter   4:   -43.66952721223414   -8.72741e-04   1.84932e-04 DIIS
   @RHF iter   5:   -43.66955513049859   -2.79183e-05   1.02789e-05 DIIS
   @RHF iter   6:   -43.66955517293308   -4.24345e-08   1.79917e-06 DIIS
   @RHF iter   7:   -43.66955517409107   -1.15799e-09   3.18455e-07 DIIS
   @RHF iter   8:   -43.66955517412953   -3.84688e-11   2.59629e-08 DIIS
   @RHF iter   9:   -43.66955517412979   -2.55795e-13   3.74574e-09 DIIS
   @RHF iter  10:   -43.66955517412976    2.84217e-14   2.18748e-10 DIIS
   @RHF iter  11:   -43.66955517412978   -1.42109e-14   1.99296e-11 DIIS
   @RHF iter  12:   -43.66955517412978   -7.10543e-15   3.99596e-12 DIIS

  ==> Post-Iterations <==

    Orbital Energies (a.u.)
    -----------------------

    Doubly Occupied:                                                      

       1Ag    -4.699523     2Ag    -4.697284     1B1u   -4.697280  
       3Ag    -0.430733     2B1u   -0.349557     4Ag    -0.171033  

    Virtual:                                                              

       3B1u    0.004508     1B3u    0.021768     1B2u    0.021768  
       1B2g    0.085528     1B3g    0.085528     2B3u    0.175961  
       2B2u    0.175961     5Ag     0.237863     4B1u    0.310921  
       6Ag     0.378077     3B2u    0.440137     3B3u    0.440137  
       5B1u    0.463550     7Ag     0.475636     2B2g    0.480794  
       2B3g    0.480794     4B3u    0.520596     4B2u    0.520596  
       6B1u    0.613208     8Ag     0.715329     7B1u    0.739636  

    Final Occupation by Irrep:
             Ag   B1g   B2g   B3g    Au   B1u   B2u   B3u 
    DOCC [     4,    0,    0,    0,    0,    2,    0,    0 ]

  Energy converged.

  @RHF Final Energy:   -43.66955517412978

   => Energetics <=

    Nuclear Repulsion Energy =              9.6214037925454559
    One-Electron Energy =                 -76.4910984952183810
    Two-Electron Energy =                  23.2001395285431329
    DFT Exchange-Correlation Energy =       0.0000000000000000
    Empirical Dispersion Energy =           0.0000000000000000
    PCM Polarization Energy =               0.0000000000000000
    EFP Energy =                            0.0000000000000000
    Total Energy =                        -43.6695551741297976


  Saving occupied orbitals to File 180.

*** tstop() called on compute-0-1.local at Fri Jul 28 09:57:17 2017
Module time:
	user time   =       0.28 seconds =       0.00 minutes
	system time =       0.01 seconds =       0.00 minutes
	total time  =          1 seconds =       0.02 minutes
Total time:
	user time   =       0.28 seconds =       0.00 minutes
	system time =       0.01 seconds =       0.00 minutes
	total time  =          1 seconds =       0.02 minutes


Properties will be evaluated at   0.000000,   0.000000,   0.000000 Bohr

Properties computed using the SCF density matrix

  Nuclear Dipole Moment: (a.u.)
     X:     0.0000      Y:     0.0000      Z:     0.0000

  Electronic Dipole Moment: (a.u.)
     X:     0.0000      Y:     0.0000      Z:     0.0000

  Dipole Moment: (a.u.)
     X:     0.0000      Y:     0.0000      Z:     0.0000     Total:     0.0000

  Dipole Moment: (Debye)
     X:     0.0000      Y:     0.0000      Z:     0.0000     Total:     0.0000

 MINTS: Wrapper to libmints.
   by Justin Turney

   Calculation information:
      Number of atoms:                   3
      Number of AO shells:              15
      Number of SO shells:              10
      Number of primitives:             42
      Number of atomic orbitals:        27
      Number of basis functions:        27

      Number of irreps:                  8
      Integral cutoff                 0.00e+00
      Number of functions per irrep: [   8    0    2    2    0    7    4    4 ]

 OEINTS: Overlap, kinetic, potential, dipole, and quadrupole integrals
         stored in file 35.

      Computing two-electron integrals...done
      Computed 11211 non-zero two-electron integrals.
        Stored in file 33.


         ---------------------------------------------------------
                                 D E T C I  

                             C. David Sherrill
                             Matt L. Leininger
                               18 June 1999
         ---------------------------------------------------------


DETCI PARAMETERS: 
   EX LEVEL      =        6      H0 BLOCKSIZE =     1000
   VAL EX LEVEL  =        0      H0 GUESS SIZE=     1000
   H0COUPLINGSIZE=        0      H0 COUPLING  =       no
   MAXITER       =       24      NUM PRINT    =       20
   NUM ROOTS     =        1      ICORE        =        1
   PRINT         =        1      FCI          =      yes
   R CONV        = 1.00e-04      MIXED        =      yes
   E CONV        = 1.00e-14      MIXED4       =      yes
   R4S           =       no      REPL OTF     =       no
   DIAG METHOD   =      SEM
   PRECONDITIONER= DAVIDSON      UPDATE       = DAVIDSON
   S             =   0.0000      Ms0          =      yes
   MAX NUM VECS  =       25
   RESTART       =       no
   GUESS VECTOR  =  H0BLOCK      OPENTYPE     =     NONE
   REF SYM       =     auto
   COLLAPSE SIZE =        1      HD AVG       = EVANGELISTI
   LSE           =       no      LSE ITER     =        0
   HD OTF        =      yes      NO DFILE     =       no
   MPN           =       no      MPN SCHMIDT  =       no
   ZAPTN         =       no      MPN WIGNER   =       no
   PERT Z        =   1.0000      FOLLOW ROOT  =        0
   NUM THREADS   =        1
   FILTER GUESS  =       no      SF RESTRICT  =       no
   OPDM          =       no      TRANS DENSITY=       no

   FILES         =  50 51 52 53

   EX ALLOW      =  1  1  1  1  1  1 
   STATE AVERAGE =  1(1.00) 

ORBITALS:
   NMO          =       27
   FROZEN CORE  =        3      RESTR CORE   =        0
   FROZEN VIRT  =        0      RESTR VIRT   =        0
   DROPPED CORE =        3      DROPPED VIRT =        0
   EXPLICIT CORE=        0      ORBS IN CI   =       24
   NUM ALP      =        6      NUM BET      =        6
   NUM ALP EXPL =        3      NUM BET EXPL =        3
   IOPEN        =       no

   DOCC            =   4   0   0   0   0   2   0   0 
   SOCC            =   0   0   0   0   0   0   0   0 

   FROZEN DOCC     =   2   0   0   0   0   1   0   0 
   RESTRICTED DOCC =   0   0   0   0   0   0   0   0 
   ACTIVE          =   6   0   2   2   0   6   4   4 
   RESTRICTED UOCC =   0   0   0   0   0   0   0   0 
   FROZEN UOCC     =   0   0   0   0   0   0   0   0 
         ---------------------------------------------------------


   ==> Setting up CI strings <==

   There are 2024 alpha and 2024 beta strings
   The CI space requires 517872 (5.18E+05) determinants and 8 blocks


   ==> Transforming CI integrals <==
	Presorting SO-basis two-electron integrals.
	Sorting File: SO Ints (nn|nn) nbuckets = 1
	Transforming the one-electron integrals and constructing Fock matrices
	Starting first half-transformation.
	Sorting half-transformed integrals.
	First half integral transformation complete.
	Starting second half-transformation.
	Two-electron integral transformation complete.

*** H0 Block Eigenvalue = -43.80065826

Find the roots by the Simultaneous Expansion Method (Block Davidson Method)
Using 1 initial trial vectors
Iter  0  Root  1 = -43.800658263   Delta_E -5.377E+00   Delta_C  1.780E-01  
Iter  1  Root  1 = -43.826749025   Delta_E -2.609E-02   Delta_C  5.649E-02  
Iter  2  Root  1 = -43.828951664   Delta_E -2.203E-03   Delta_C  2.710E-02  
Iter  3  Root  1 = -43.829462468   Delta_E -5.108E-04   Delta_C  1.328E-02  
Iter  4  Root  1 = -43.829601825   Delta_E -1.394E-04   Delta_C  7.847E-03  
Iter  5  Root  1 = -43.829644471   Delta_E -4.265E-05   Delta_C  5.493E-03  
Iter  6  Root  1 = -43.829663565   Delta_E -1.909E-05   Delta_C  3.658E-03  
Iter  7  Root  1 = -43.829675338   Delta_E -1.177E-05   Delta_C  2.557E-03  
Iter  8  Root  1 = -43.829680435   Delta_E -5.097E-06   Delta_C  1.649E-03  
Iter  9  Root  1 = -43.829682157   Delta_E -1.722E-06   Delta_C  9.144E-04  
Iter 10  Root  1 = -43.829682710   Delta_E -5.531E-07   Delta_C  5.591E-04  
Iter 11  Root  1 = -43.829682922   Delta_E -2.121E-07   Delta_C  3.889E-04  
Iter 12  Root  1 = -43.829683027   Delta_E -1.046E-07   Delta_C  2.658E-04  
Iter 13  Root  1 = -43.829683070   Delta_E -4.371E-08   Delta_C  1.607E-04  
Iter 14  Root  1 = -43.829683083   Delta_E -1.312E-08   Delta_C  8.447E-05  
Iter 15  Root  1 = -43.829683087   Delta_E -3.288E-09   Delta_C  4.084E-05  
Iter 16  Root  1 = -43.829683088   Delta_E -8.243E-10   Delta_C  1.875E-05  
Iter 17  Root  1 = -43.829683088   Delta_E -1.816E-10   Delta_C  8.742E-06  
Iter 18  Root  1 = -43.829683088   Delta_E -3.922E-11   Delta_C  4.147E-06  
Iter 19  Root  1 = -43.829683088   Delta_E -8.890E-12   Delta_C  2.004E-06  
Iter 20  Root  1 = -43.829683088   Delta_E -2.159E-12   Delta_C  1.024E-06  
Iter 21  Root  1 = -43.829683088   Delta_E -5.613E-13   Delta_C  5.475E-07  
Warning: Norm of correction (root 0) is < 1.0E-13
Iter 22  Root  1 = -43.829683088   Delta_E -1.679E-13   Delta_C  2.813E-07  
Warning: Norm of correction (root 0) is < 1.0E-13
Iter 23  Root  1 = -43.829683088   Delta_E -4.707E-14   Delta_C  1.379E-07  
Warning: Norm of correction (root 0) is < 1.0E-13
Iter 24  Root  1 = -43.829683088   Delta_E -2.665E-15   Delta_C  6.677E-08 c

Maximum number of CI iterations reached

* ROOT 1 CI total energy = -43.8296830877884


The 20 most important determinants

    1    0.779569  (    0,    0)  3AgX  4AgX  2B1uX  
    2   -0.457628  ( 1242, 1242)  3AgX  2B1uX  3B1uX  
    3   -0.075034  ( 1562, 1562)  3AgX  2B1uX  1B2uX  
    4   -0.075034  ( 1836, 1836)  3AgX  2B1uX  1B3uX  
    5   -0.060389  ( 1837, 1837)  4AgX  2B1uX  1B3uX  
    6   -0.060389  ( 1563, 1563)  4AgX  2B1uX  1B2uX  
    7   -0.059925  (    0,   17)  3AgX  4AgX  2B1uA  3B1uB  
    8   -0.059925  (   17,    0)  3AgX  4AgX  2B1uB  3B1uA  
    9   -0.059506  (    1,   17)  3AgX  4AgB  2B1uA  5AgA  3B1uB  
   10   -0.059506  (   17,    1)  3AgX  4AgA  2B1uB  5AgB  3B1uA  
   11    0.048332  (    0,   18)  3AgX  4AgA  2B1uA  5AgB  3B1uB  
   12    0.048332  (   18,    0)  3AgX  4AgB  2B1uB  5AgA  3B1uA  
   13   -0.043541  ( 1762, 1762)  3AgX  4AgX  1B2gX  
   14   -0.043541  ( 1500, 1500)  3AgX  4AgX  1B3gX  
   15    0.043341  ( 1563, 1598)  3AgB  4AgA  2B1uX  1B2uA  2B2uB  
   16    0.043341  ( 1598, 1563)  3AgA  4AgB  2B1uX  1B2uB  2B2uA  
   17    0.043341  ( 1837, 1880)  3AgB  4AgA  2B1uX  1B3uA  2B3uB  
   18    0.043341  ( 1880, 1837)  3AgA  4AgB  2B1uX  1B3uB  2B3uA  
   19    0.041800  (  839,  839)  2B1uX  3B1uX  1B2uX  
   20    0.041800  (  611,  611)  2B1uX  3B1uX  1B3uX  


		 "A good bug is a dead bug" 

			 - Starship Troopers

		 "I didn't write FORTRAN.  That's the problem."

			 - Edward Valeev


*** Psi4 exiting successfully. Buy a developer a beer!
