    -----------------------------------------------------------------------
          Psi4: An Open-Source Ab Initio Electronic Structure Package
                              Psi4 1.0.0 Driver

                          Git: Rev {master} 6a9a71b dirty

    J. M. Turney, A. C. Simmonett, R. M. Parrish, E. G. Hohenstein,
    F. A. Evangelista, J. T. Fermann, B. J. Mintz, L. A. Burns, J. J. Wilke,
    M. L. Abrams, N. J. Russ, M. L. Leininger, C. L. Janssen, E. T. Seidl,
    W. D. Allen, H. F. Schaefer, R. A. King, E. F. Valeev, C. D. Sherrill,
    and T. D. Crawford, WIREs Comput. Mol. Sci. 2, 556-565 (2012)
    (doi: 10.1002/wcms.93)

                         Additional Contributions by
    A. E. DePrince, U. Bozkaya, A. Yu. Sokolov, D. G. A. Smith, R. Di Remigio,
    R. M. Richard, J. F. Gonthier, H. R. McAlexander, M. Saitow, and
    B. P. Pritchard
    -----------------------------------------------------------------------


    Psi4 started on: Fri Jul 28 09:56:47 2017

    Process ID:  12152
    PSI4DATADIR: /home/yhliu/psi4conda/share/psi4
    Memory level set to 256.000 MB

  ==> Input File <==

--------------------------------------------------------------------------

memory 10 Gb
molecule be2 {
0 1
Be  0.0  0.0  0.0
Be  0.0  0.0  1.900 
Be  0.0  0.0  3.800 
units angstrom    
}

set basis 6-31g
set freeze_core true
set PRINT_BASIS True
set PUREAM False
set E_CONVERGENCE 1e-14
energy('fci')
--------------------------------------------------------------------------
/home/yhliu/psi4conda/lib/python2.7/site-packages/v2rdm_casscf/v2rdm_casscf.so loaded.

  Memory set to  10.000 GiB by Python script.

*** tstart() called on compute-0-1.local
*** at Fri Jul 28 09:56:48 2017


         ---------------------------------------------------------
                                   SCF
            by Justin Turney, Rob Parrish, and Andy Simmonett
                              RHF Reference
                        1 Threads,  10000 MiB Core
         ---------------------------------------------------------

  ==> Geometry <==

    Molecular point group: d2h
    Full point group: D_inf_h

    Geometry (in Angstrom), charge = 0, multiplicity = 1:

       Center              X                  Y                   Z               Mass       
    ------------   -----------------  -----------------  -----------------  -----------------
          BE          0.000000000000     0.000000000000    -1.900000000000     9.012182201000
          BE          0.000000000000     0.000000000000     0.000000000000     9.012182201000
          BE          0.000000000000     0.000000000000     1.900000000000     9.012182201000

  Running in d2h symmetry.

  Rotational constants: A = ************  B =      0.25908  C =      0.25908 [cm^-1]
  Rotational constants: A = ************  B =   7766.94152  C =   7766.94152 [MHz]
  Nuclear repulsion =   11.140572812421059

  Charge       = 0
  Multiplicity = 1
  Electrons    = 12
  Nalpha       = 6
  Nbeta        = 6

  ==> Algorithm <==

  SCF Algorithm Type is PK.
  DIIS enabled.
  MOM disabled.
  Fractional occupation disabled.
  Guess Type is SAD.
  Energy threshold   = 1.00e-14
  Density threshold  = 1.00e-08
  Integral threshold = 0.00e+00

  ==> Primary Basis <==

  Basis Set: 6-31G
    Number of shells: 15
    Number of basis function: 27
    Number of Cartesian functions: 27
    Spherical Harmonics?: false
    Max angular momentum: 1

  -AO BASIS SET INFORMATION:
    Name                   = 6-31G
    Total number of shells = 15
    Number of primitives   = 42
    Number of AO           = 27
    Number of SO           = 27
    Maximum AM             = 1
    Spherical Harmonics    = FALSE

  -Contraction Scheme:
    Atom   Type   All Primitives // Shells:
   ------ ------ --------------------------
       1    BE     10s 4p // 3s 2p 
       2    BE     10s 4p // 3s 2p 
       3    BE     10s 4p // 3s 2p 

  ==> AO Basis Functions <==

    [ 6-31G ]
    cartesian
    ****
   BE   1
    S   6 1.00
                      1264.58570000           0.00194480
                       189.93681000           0.01483510
                        43.15908900           0.07209060
                        12.09866300           0.23715420
                         3.80632320           0.46919870
                         1.27289030           0.35652020
    S   3 1.00
                         3.19646310          -0.11264870
                         0.74781330          -0.22950640
                         0.21996630           1.18691670
    P   3 1.00
                         3.19646310           0.05598020
                         0.74781330           0.26155060
                         0.21996630           0.79397230
    S   1 1.00
                         0.08230990           1.00000000
    P   1 1.00
                         0.08230990           1.00000000
    ****
   BE   2
    S   6 1.00
                      1264.58570000           0.00194480
                       189.93681000           0.01483510
                        43.15908900           0.07209060
                        12.09866300           0.23715420
                         3.80632320           0.46919870
                         1.27289030           0.35652020
    S   3 1.00
                         3.19646310          -0.11264870
                         0.74781330          -0.22950640
                         0.21996630           1.18691670
    P   3 1.00
                         3.19646310           0.05598020
                         0.74781330           0.26155060
                         0.21996630           0.79397230
    S   1 1.00
                         0.08230990           1.00000000
    P   1 1.00
                         0.08230990           1.00000000
    ****

  ==> Pre-Iterations <==

   -------------------------------------------------------
    Irrep   Nso     Nmo     Nalpha   Nbeta   Ndocc  Nsocc
   -------------------------------------------------------
     Ag         8       8       0       0       0       0
     B1g        0       0       0       0       0       0
     B2g        2       2       0       0       0       0
     B3g        2       2       0       0       0       0
     Au         0       0       0       0       0       0
     B1u        7       7       0       0       0       0
     B2u        4       4       0       0       0       0
     B3u        4       4       0       0       0       0
   -------------------------------------------------------
    Total      27      27       6       6       6       0
   -------------------------------------------------------

  ==> Integral Setup <==

  Using in-core PK algorithm.
   Calculation information:
      Number of atoms:                   3
      Number of AO shells:              15
      Number of primitives:             42
      Number of atomic orbitals:        27
      Number of basis functions:        27

      Integral cutoff                 1.00e-12
      Number of threads:                 1

  Performing in-core PK
  Using 143262 doubles for integral storage.
  We computed 7140 shell quartets total.
  Whereas there are 7260 unique shell quartets.
  ==> DiskJK: Disk-Based J/K Matrices <==

    J tasked:                  Yes
    K tasked:                  Yes
    wK tasked:                  No
    Memory (MB):              7152
    Schwarz Cutoff:          1E-12

    OpenMP threads:              1
  Minimum eigenvalue in the overlap matrix is 1.7191472890E-03.
  Using Symmetric Orthogonalization.
  SCF Guess: Superposition of Atomic Densities via on-the-fly atomic UHF.

  ==> Iterations <==

                        Total Energy        Delta E     RMS |[F,P]|

   @RHF iter   0:   -44.26624188019179   -4.42662e+01   7.75187e-02 
   @RHF iter   1:   -43.59664118606804    6.69601e-01   8.08184e-03 
   @RHF iter   2:   -43.61908049059619   -2.24393e-02   3.05947e-03 DIIS
   @RHF iter   3:   -43.62211810862176   -3.03762e-03   1.45729e-03 DIIS
   @RHF iter   4:   -43.62341900278446   -1.30089e-03   2.46399e-04 DIIS
   @RHF iter   5:   -43.62346516356270   -4.61608e-05   1.59283e-05 DIIS
   @RHF iter   6:   -43.62346525990348   -9.63408e-08   2.00322e-06 DIIS
   @RHF iter   7:   -43.62346526121397   -1.31048e-09   3.09466e-07 DIIS
   @RHF iter   8:   -43.62346526125030   -3.63372e-11   4.29342e-08 DIIS
   @RHF iter   9:   -43.62346526125107   -7.67386e-13   7.69375e-09 DIIS
   @RHF iter  10:   -43.62346526125113   -5.68434e-14   3.78240e-10 DIIS
   @RHF iter  11:   -43.62346526125114   -1.42109e-14   3.42120e-11 DIIS
   @RHF iter  12:   -43.62346526125113    1.42109e-14   5.48779e-12 DIIS
   @RHF iter  13:   -43.62346526125110    2.84217e-14   6.42968e-13 DIIS
   @RHF iter  14:   -43.62346526125113   -2.84217e-14   8.01023e-14 DIIS
   @RHF iter  15:   -43.62346526125113    0.00000e+00   1.92874e-14 DIIS

  ==> Post-Iterations <==

    Orbital Energies (a.u.)
    -----------------------

    Doubly Occupied:                                                      

       1Ag    -4.687064     1B1u   -4.687002     2Ag    -4.678446  
       3Ag    -0.459073     2B1u   -0.369219     4Ag    -0.150898  

    Virtual:                                                              

       3B1u    0.002896     1B3u    0.009417     1B2u    0.009417  
       1B3g    0.090516     1B2g    0.090516     2B3u    0.202090  
       2B2u    0.202090     5Ag     0.292505     4B1u    0.309837  
       6Ag     0.335732     3B3u    0.417684     3B2u    0.417684  
       5B1u    0.466860     2B3g    0.483820     2B2g    0.483820  
       7Ag     0.510645     4B3u    0.548900     4B2u    0.548900  
       6B1u    0.684583     8Ag     0.812630     7B1u    0.879884  

    Final Occupation by Irrep:
             Ag   B1g   B2g   B3g    Au   B1u   B2u   B3u 
    DOCC [     4,    0,    0,    0,    0,    2,    0,    0 ]

  Energy converged.

  @RHF Final Energy:   -43.62346526125113

   => Energetics <=

    Nuclear Repulsion Energy =             11.1405728124210590
    One-Electron Energy =                 -79.4646720258713941
    Two-Electron Energy =                  24.7006339521992118
    DFT Exchange-Correlation Energy =       0.0000000000000000
    Empirical Dispersion Energy =           0.0000000000000000
    PCM Polarization Energy =               0.0000000000000000
    EFP Energy =                            0.0000000000000000
    Total Energy =                        -43.6234652612511269


  Saving occupied orbitals to File 180.

*** tstop() called on compute-0-1.local at Fri Jul 28 09:56:48 2017
Module time:
	user time   =       0.24 seconds =       0.00 minutes
	system time =       0.01 seconds =       0.00 minutes
	total time  =          0 seconds =       0.00 minutes
Total time:
	user time   =       0.24 seconds =       0.00 minutes
	system time =       0.01 seconds =       0.00 minutes
	total time  =          0 seconds =       0.00 minutes


Properties will be evaluated at   0.000000,   0.000000,   0.000000 Bohr

Properties computed using the SCF density matrix

  Nuclear Dipole Moment: (a.u.)
     X:     0.0000      Y:     0.0000      Z:     0.0000

  Electronic Dipole Moment: (a.u.)
     X:     0.0000      Y:     0.0000      Z:     0.0000

  Dipole Moment: (a.u.)
     X:     0.0000      Y:     0.0000      Z:     0.0000     Total:     0.0000

  Dipole Moment: (Debye)
     X:     0.0000      Y:     0.0000      Z:     0.0000     Total:     0.0000

 MINTS: Wrapper to libmints.
   by Justin Turney

   Calculation information:
      Number of atoms:                   3
      Number of AO shells:              15
      Number of SO shells:              10
      Number of primitives:             42
      Number of atomic orbitals:        27
      Number of basis functions:        27

      Number of irreps:                  8
      Integral cutoff                 0.00e+00
      Number of functions per irrep: [   8    0    2    2    0    7    4    4 ]

 OEINTS: Overlap, kinetic, potential, dipole, and quadrupole integrals
         stored in file 35.

      Computing two-electron integrals...done
      Computed 11211 non-zero two-electron integrals.
        Stored in file 33.


         ---------------------------------------------------------
                                 D E T C I  

                             C. David Sherrill
                             Matt L. Leininger
                               18 June 1999
         ---------------------------------------------------------


DETCI PARAMETERS: 
   EX LEVEL      =        6      H0 BLOCKSIZE =     1000
   VAL EX LEVEL  =        0      H0 GUESS SIZE=     1000
   H0COUPLINGSIZE=        0      H0 COUPLING  =       no
   MAXITER       =       24      NUM PRINT    =       20
   NUM ROOTS     =        1      ICORE        =        1
   PRINT         =        1      FCI          =      yes
   R CONV        = 1.00e-04      MIXED        =      yes
   E CONV        = 1.00e-14      MIXED4       =      yes
   R4S           =       no      REPL OTF     =       no
   DIAG METHOD   =      SEM
   PRECONDITIONER= DAVIDSON      UPDATE       = DAVIDSON
   S             =   0.0000      Ms0          =      yes
   MAX NUM VECS  =       25
   RESTART       =       no
   GUESS VECTOR  =  H0BLOCK      OPENTYPE     =     NONE
   REF SYM       =     auto
   COLLAPSE SIZE =        1      HD AVG       = EVANGELISTI
   LSE           =       no      LSE ITER     =        0
   HD OTF        =      yes      NO DFILE     =       no
   MPN           =       no      MPN SCHMIDT  =       no
   ZAPTN         =       no      MPN WIGNER   =       no
   PERT Z        =   1.0000      FOLLOW ROOT  =        0
   NUM THREADS   =        1
   FILTER GUESS  =       no      SF RESTRICT  =       no
   OPDM          =       no      TRANS DENSITY=       no

   FILES         =  50 51 52 53

   EX ALLOW      =  1  1  1  1  1  1 
   STATE AVERAGE =  1(1.00) 

ORBITALS:
   NMO          =       27
   FROZEN CORE  =        3      RESTR CORE   =        0
   FROZEN VIRT  =        0      RESTR VIRT   =        0
   DROPPED CORE =        3      DROPPED VIRT =        0
   EXPLICIT CORE=        0      ORBS IN CI   =       24
   NUM ALP      =        6      NUM BET      =        6
   NUM ALP EXPL =        3      NUM BET EXPL =        3
   IOPEN        =       no

   DOCC            =   4   0   0   0   0   2   0   0 
   SOCC            =   0   0   0   0   0   0   0   0 

   FROZEN DOCC     =   2   0   0   0   0   1   0   0 
   RESTRICTED DOCC =   0   0   0   0   0   0   0   0 
   ACTIVE          =   6   0   2   2   0   6   4   4 
   RESTRICTED UOCC =   0   0   0   0   0   0   0   0 
   FROZEN UOCC     =   0   0   0   0   0   0   0   0 
         ---------------------------------------------------------


   ==> Setting up CI strings <==

   There are 2024 alpha and 2024 beta strings
   The CI space requires 517872 (5.18E+05) determinants and 8 blocks


   ==> Transforming CI integrals <==
	Presorting SO-basis two-electron integrals.
	Sorting File: SO Ints (nn|nn) nbuckets = 1
	Transforming the one-electron integrals and constructing Fock matrices
	Starting first half-transformation.
	Sorting half-transformed integrals.
	First half integral transformation complete.
	Starting second half-transformation.
	Two-electron integral transformation complete.

*** H0 Block Eigenvalue = -43.77062123

Find the roots by the Simultaneous Expansion Method (Block Davidson Method)
Using 1 initial trial vectors
Iter  0  Root  1 = -43.770621228   Delta_E -5.727E+00   Delta_C  1.852E-01  
Iter  1  Root  1 = -43.796633877   Delta_E -2.601E-02   Delta_C  5.398E-02  
Iter  2  Root  1 = -43.798541732   Delta_E -1.908E-03   Delta_C  2.523E-02  
Iter  3  Root  1 = -43.798975399   Delta_E -4.337E-04   Delta_C  1.253E-02  
Iter  4  Root  1 = -43.799107654   Delta_E -1.323E-04   Delta_C  7.272E-03  
Iter  5  Root  1 = -43.799152798   Delta_E -4.514E-05   Delta_C  5.659E-03  
Iter  6  Root  1 = -43.799176431   Delta_E -2.363E-05   Delta_C  4.794E-03  
Iter  7  Root  1 = -43.799197872   Delta_E -2.144E-05   Delta_C  3.972E-03  
Iter  8  Root  1 = -43.799211904   Delta_E -1.403E-05   Delta_C  2.914E-03  
Iter  9  Root  1 = -43.799218266   Delta_E -6.362E-06   Delta_C  1.913E-03  
Iter 10  Root  1 = -43.799221046   Delta_E -2.780E-06   Delta_C  1.319E-03  
Iter 11  Root  1 = -43.799222236   Delta_E -1.190E-06   Delta_C  8.760E-04  
Iter 12  Root  1 = -43.799222682   Delta_E -4.463E-07   Delta_C  4.795E-04  
Iter 13  Root  1 = -43.799222808   Delta_E -1.258E-07   Delta_C  2.320E-04  
Iter 14  Root  1 = -43.799222836   Delta_E -2.763E-08   Delta_C  1.120E-04  
Iter 15  Root  1 = -43.799222842   Delta_E -6.581E-09   Delta_C  5.296E-05  
Iter 16  Root  1 = -43.799222844   Delta_E -1.536E-09   Delta_C  2.653E-05  
Iter 17  Root  1 = -43.799222844   Delta_E -3.758E-10   Delta_C  1.357E-05  
Iter 18  Root  1 = -43.799222844   Delta_E -9.858E-11   Delta_C  7.036E-06  
Iter 19  Root  1 = -43.799222844   Delta_E -2.683E-11   Delta_C  3.793E-06  
Iter 20  Root  1 = -43.799222844   Delta_E -8.163E-12   Delta_C  2.037E-06  
Iter 21  Root  1 = -43.799222844   Delta_E -2.331E-12   Delta_C  1.087E-06  
Iter 22  Root  1 = -43.799222844   Delta_E -6.555E-13   Delta_C  5.703E-07  
Warning: Norm of correction (root 0) is < 1.0E-13
Iter 23  Root  1 = -43.799222844   Delta_E -1.865E-13   Delta_C  3.035E-07  
Warning: Norm of correction (root 0) is < 1.0E-13
Iter 24  Root  1 = -43.799222844   Delta_E -5.240E-14   Delta_C  1.629E-07  

Maximum number of CI iterations reached

* ROOT 1 CI total energy = -43.7992228443034


The 20 most important determinants

    1   -0.743972  (    0,    0)  3AgX  4AgX  2B1uX  
    2    0.525380  ( 1242, 1242)  3AgX  2B1uX  3B1uX  
    3    0.096760  ( 1836, 1836)  3AgX  2B1uX  1B3uX  
    4    0.096760  ( 1562, 1562)  3AgX  2B1uX  1B2uX  
    5    0.062025  ( 1563, 1563)  4AgX  2B1uX  1B2uX  
    6    0.062025  ( 1837, 1837)  4AgX  2B1uX  1B3uX  
    7    0.057563  (    0,   17)  3AgX  4AgX  2B1uA  3B1uB  
    8    0.057563  (   17,    0)  3AgX  4AgX  2B1uB  3B1uA  
    9   -0.052008  (  611,  611)  2B1uX  3B1uX  1B3uX  
   10   -0.052008  (  839,  839)  2B1uX  3B1uX  1B2uX  
   11   -0.046804  ( 1242, 1260)  3AgX  2B1uX  3B1uA  5B1uB  
   12   -0.046804  ( 1260, 1242)  3AgX  2B1uX  3B1uB  5B1uA  
   13   -0.044452  (    0,    6)  3AgX  4AgA  2B1uX  7AgB  
   14   -0.044452  (    6,    0)  3AgX  4AgB  2B1uX  7AgA  
   15   -0.040529  (  506,  594)  3AgX  4AgB  2B1uA  1B2gA  1B3uB  
   16   -0.040529  (  594,  506)  3AgX  4AgA  2B1uB  1B2gB  1B3uA  
   17   -0.040529  (  750,  822)  3AgX  4AgB  2B1uA  1B3gA  1B2uB  
   18   -0.040529  (  822,  750)  3AgX  4AgA  2B1uB  1B3gB  1B2uA  
   19   -0.040033  ( 1842, 1842)  3AgX  3B1uX  1B3uX  
   20   -0.040033  ( 1568, 1568)  3AgX  3B1uX  1B2uX  


An error has occurred python-side. Traceback (most recent call last):

  File "<string>", line 39, in <module>

  File "/home/yhliu/psi4conda/share/psi4/python/driver.py", line 446, in energy
    wfn = procedures['energy'][lowername](lowername, molecule=molecule, **kwargs)

  File "/home/yhliu/psi4conda/share/psi4/python/procedures/proc.py", line 2595, in run_detci
    ci_wfn = psi4.detci(ref_wfn)

RuntimeError: 
Fatal Error: CIWavefunction: Iterations did not converge!
Error occurred in file: /scratch/cdsgroup/conda-builds/work/src/bin/detci/ciwave.cc on line: 364
The most recent 5 function calls were:

psi::PsiException::PsiException(std::string, char const*, int)
psi::detci::CIWavefunction::convergence_death()
psi::detci::CIWavefunction::diag_h()
psi::detci::CIWavefunction::compute_energy()
psi::detci::detci(boost::shared_ptr<psi::Wavefunction>, psi::Options&)



