    -----------------------------------------------------------------------
          Psi4: An Open-Source Ab Initio Electronic Structure Package
                              Psi4 1.0.0 Driver

                          Git: Rev {master} 6a9a71b dirty

    J. M. Turney, A. C. Simmonett, R. M. Parrish, E. G. Hohenstein,
    F. A. Evangelista, J. T. Fermann, B. J. Mintz, L. A. Burns, J. J. Wilke,
    M. L. Abrams, N. J. Russ, M. L. Leininger, C. L. Janssen, E. T. Seidl,
    W. D. Allen, H. F. Schaefer, R. A. King, E. F. Valeev, C. D. Sherrill,
    and T. D. Crawford, WIREs Comput. Mol. Sci. 2, 556-565 (2012)
    (doi: 10.1002/wcms.93)

                         Additional Contributions by
    A. E. DePrince, U. Bozkaya, A. Yu. Sokolov, D. G. A. Smith, R. Di Remigio,
    R. M. Richard, J. F. Gonthier, H. R. McAlexander, M. Saitow, and
    B. P. Pritchard
    -----------------------------------------------------------------------


    Psi4 started on: Fri Jul 28 09:58:28 2017

    Process ID:  12161
    PSI4DATADIR: /home/yhliu/psi4conda/share/psi4
    Memory level set to 256.000 MB

  ==> Input File <==

--------------------------------------------------------------------------

memory 10 Gb
molecule be2 {
0 1
Be  0.0  0.0  0.0
Be  0.0  0.0  2.800 
Be  0.0  0.0  5.600 
units angstrom    
}

set basis 6-31g
set freeze_core true
set PRINT_BASIS True
set PUREAM False
set E_CONVERGENCE 1e-14
energy('fci')
--------------------------------------------------------------------------
/home/yhliu/psi4conda/lib/python2.7/site-packages/v2rdm_casscf/v2rdm_casscf.so loaded.

  Memory set to  10.000 GiB by Python script.

*** tstart() called on compute-0-1.local
*** at Fri Jul 28 09:58:28 2017


         ---------------------------------------------------------
                                   SCF
            by Justin Turney, Rob Parrish, and Andy Simmonett
                              RHF Reference
                        1 Threads,  10000 MiB Core
         ---------------------------------------------------------

  ==> Geometry <==

    Molecular point group: d2h
    Full point group: D_inf_h

    Geometry (in Angstrom), charge = 0, multiplicity = 1:

       Center              X                  Y                   Z               Mass       
    ------------   -----------------  -----------------  -----------------  -----------------
          BE          0.000000000000     0.000000000000    -2.800000000000     9.012182201000
          BE          0.000000000000     0.000000000000     0.000000000000     9.012182201000
          BE          0.000000000000     0.000000000000     2.800000000000     9.012182201000

  Running in d2h symmetry.

  Rotational constants: A = ************  B =      0.11929  C =      0.11929 [cm^-1]
  Rotational constants: A = ************  B =   3576.35955  C =   3576.35955 [MHz]
  Nuclear repulsion =    7.559674408428577

  Charge       = 0
  Multiplicity = 1
  Electrons    = 12
  Nalpha       = 6
  Nbeta        = 6

  ==> Algorithm <==

  SCF Algorithm Type is PK.
  DIIS enabled.
  MOM disabled.
  Fractional occupation disabled.
  Guess Type is SAD.
  Energy threshold   = 1.00e-14
  Density threshold  = 1.00e-08
  Integral threshold = 0.00e+00

  ==> Primary Basis <==

  Basis Set: 6-31G
    Number of shells: 15
    Number of basis function: 27
    Number of Cartesian functions: 27
    Spherical Harmonics?: false
    Max angular momentum: 1

  -AO BASIS SET INFORMATION:
    Name                   = 6-31G
    Total number of shells = 15
    Number of primitives   = 42
    Number of AO           = 27
    Number of SO           = 27
    Maximum AM             = 1
    Spherical Harmonics    = FALSE

  -Contraction Scheme:
    Atom   Type   All Primitives // Shells:
   ------ ------ --------------------------
       1    BE     10s 4p // 3s 2p 
       2    BE     10s 4p // 3s 2p 
       3    BE     10s 4p // 3s 2p 

  ==> AO Basis Functions <==

    [ 6-31G ]
    cartesian
    ****
   BE   1
    S   6 1.00
                      1264.58570000           0.00194480
                       189.93681000           0.01483510
                        43.15908900           0.07209060
                        12.09866300           0.23715420
                         3.80632320           0.46919870
                         1.27289030           0.35652020
    S   3 1.00
                         3.19646310          -0.11264870
                         0.74781330          -0.22950640
                         0.21996630           1.18691670
    P   3 1.00
                         3.19646310           0.05598020
                         0.74781330           0.26155060
                         0.21996630           0.79397230
    S   1 1.00
                         0.08230990           1.00000000
    P   1 1.00
                         0.08230990           1.00000000
    ****
   BE   2
    S   6 1.00
                      1264.58570000           0.00194480
                       189.93681000           0.01483510
                        43.15908900           0.07209060
                        12.09866300           0.23715420
                         3.80632320           0.46919870
                         1.27289030           0.35652020
    S   3 1.00
                         3.19646310          -0.11264870
                         0.74781330          -0.22950640
                         0.21996630           1.18691670
    P   3 1.00
                         3.19646310           0.05598020
                         0.74781330           0.26155060
                         0.21996630           0.79397230
    S   1 1.00
                         0.08230990           1.00000000
    P   1 1.00
                         0.08230990           1.00000000
    ****

  ==> Pre-Iterations <==

   -------------------------------------------------------
    Irrep   Nso     Nmo     Nalpha   Nbeta   Ndocc  Nsocc
   -------------------------------------------------------
     Ag         8       8       0       0       0       0
     B1g        0       0       0       0       0       0
     B2g        2       2       0       0       0       0
     B3g        2       2       0       0       0       0
     Au         0       0       0       0       0       0
     B1u        7       7       0       0       0       0
     B2u        4       4       0       0       0       0
     B3u        4       4       0       0       0       0
   -------------------------------------------------------
    Total      27      27       6       6       6       0
   -------------------------------------------------------

  ==> Integral Setup <==

  Using in-core PK algorithm.
   Calculation information:
      Number of atoms:                   3
      Number of AO shells:              15
      Number of primitives:             42
      Number of atomic orbitals:        27
      Number of basis functions:        27

      Integral cutoff                 1.00e-12
      Number of threads:                 1

  Performing in-core PK
  Using 143262 doubles for integral storage.
  We computed 7047 shell quartets total.
  Whereas there are 7260 unique shell quartets.
  ==> DiskJK: Disk-Based J/K Matrices <==

    J tasked:                  Yes
    K tasked:                  Yes
    wK tasked:                  No
    Memory (MB):              7152
    Schwarz Cutoff:          1E-12

    OpenMP threads:              1
  Minimum eigenvalue in the overlap matrix is 2.2712779463E-02.
  Using Symmetric Orthogonalization.
  SCF Guess: Superposition of Atomic Densities via on-the-fly atomic UHF.

  ==> Iterations <==

                        Total Energy        Delta E     RMS |[F,P]|

   @RHF iter   0:   -43.81842634557725   -4.38184e+01   2.08883e-02 
   @RHF iter   1:   -43.68774783375322    1.30679e-01   2.23116e-03 
   @RHF iter   2:   -43.68983457517224   -2.08674e-03   9.06541e-04 DIIS
   @RHF iter   3:   -43.69032581469486   -4.91240e-04   3.09924e-04 DIIS
   @RHF iter   4:   -43.69039845109376   -7.26364e-05   3.70237e-05 DIIS
   @RHF iter   5:   -43.69039932024371   -8.69150e-07   3.03061e-06 DIIS
   @RHF iter   6:   -43.69039932286567   -2.62197e-09   3.35300e-07 DIIS
   @RHF iter   7:   -43.69039932289849   -3.28129e-11   3.54216e-08 DIIS
   @RHF iter   8:   -43.69039932289922   -7.31859e-13   2.89951e-09 DIIS
   @RHF iter   9:   -43.69039932289922    0.00000e+00   3.17587e-10 DIIS

  ==> Post-Iterations <==

    Orbital Energies (a.u.)
    -----------------------

    Doubly Occupied:                                                      

       1Ag    -4.713043     2Ag    -4.706046     1B1u   -4.706044  
       3Ag    -0.379259     2B1u   -0.319572     4Ag    -0.221046  

    Virtual:                                                              

       3B1u    0.021074     1B3u    0.041236     1B2u    0.041236  
       1B2g    0.081516     1B3g    0.081516     2B3u    0.136549  
       2B2u    0.136549     5Ag     0.152195     4B1u    0.274818  
       6Ag     0.444540     3B3u    0.457710     3B2u    0.457710  
       5B1u    0.461646     2B2g    0.468780     2B3g    0.468780  
       7Ag     0.480743     4B3u    0.500873     4B2u    0.500873  
       6B1u    0.504960     8Ag     0.611097     7B1u    0.671861  

    Final Occupation by Irrep:
             Ag   B1g   B2g   B3g    Au   B1u   B2u   B3u 
    DOCC [     4,    0,    0,    0,    0,    2,    0,    0 ]

  Energy converged.

  @RHF Final Energy:   -43.69039932289922

   => Energetics <=

    Nuclear Repulsion Energy =              7.5596744084285765
    One-Electron Energy =                 -72.4101299648022660
    Two-Electron Energy =                  21.1600562334744637
    DFT Exchange-Correlation Energy =       0.0000000000000000
    Empirical Dispersion Energy =           0.0000000000000000
    PCM Polarization Energy =               0.0000000000000000
    EFP Energy =                            0.0000000000000000
    Total Energy =                        -43.6903993228992249


  Saving occupied orbitals to File 180.

*** tstop() called on compute-0-1.local at Fri Jul 28 09:58:29 2017
Module time:
	user time   =       0.27 seconds =       0.00 minutes
	system time =       0.01 seconds =       0.00 minutes
	total time  =          1 seconds =       0.02 minutes
Total time:
	user time   =       0.27 seconds =       0.00 minutes
	system time =       0.01 seconds =       0.00 minutes
	total time  =          1 seconds =       0.02 minutes


Properties will be evaluated at   0.000000,   0.000000,   0.000000 Bohr

Properties computed using the SCF density matrix

  Nuclear Dipole Moment: (a.u.)
     X:     0.0000      Y:     0.0000      Z:     0.0000

  Electronic Dipole Moment: (a.u.)
     X:     0.0000      Y:     0.0000      Z:     0.0000

  Dipole Moment: (a.u.)
     X:     0.0000      Y:     0.0000      Z:     0.0000     Total:     0.0000

  Dipole Moment: (Debye)
     X:     0.0000      Y:     0.0000      Z:     0.0000     Total:     0.0000

 MINTS: Wrapper to libmints.
   by Justin Turney

   Calculation information:
      Number of atoms:                   3
      Number of AO shells:              15
      Number of SO shells:              10
      Number of primitives:             42
      Number of atomic orbitals:        27
      Number of basis functions:        27

      Number of irreps:                  8
      Integral cutoff                 0.00e+00
      Number of functions per irrep: [   8    0    2    2    0    7    4    4 ]

 OEINTS: Overlap, kinetic, potential, dipole, and quadrupole integrals
         stored in file 35.

      Computing two-electron integrals...done
      Computed 11211 non-zero two-electron integrals.
        Stored in file 33.


         ---------------------------------------------------------
                                 D E T C I  

                             C. David Sherrill
                             Matt L. Leininger
                               18 June 1999
         ---------------------------------------------------------


DETCI PARAMETERS: 
   EX LEVEL      =        6      H0 BLOCKSIZE =     1000
   VAL EX LEVEL  =        0      H0 GUESS SIZE=     1000
   H0COUPLINGSIZE=        0      H0 COUPLING  =       no
   MAXITER       =       24      NUM PRINT    =       20
   NUM ROOTS     =        1      ICORE        =        1
   PRINT         =        1      FCI          =      yes
   R CONV        = 1.00e-04      MIXED        =      yes
   E CONV        = 1.00e-14      MIXED4       =      yes
   R4S           =       no      REPL OTF     =       no
   DIAG METHOD   =      SEM
   PRECONDITIONER= DAVIDSON      UPDATE       = DAVIDSON
   S             =   0.0000      Ms0          =      yes
   MAX NUM VECS  =       25
   RESTART       =       no
   GUESS VECTOR  =  H0BLOCK      OPENTYPE     =     NONE
   REF SYM       =     auto
   COLLAPSE SIZE =        1      HD AVG       = EVANGELISTI
   LSE           =       no      LSE ITER     =        0
   HD OTF        =      yes      NO DFILE     =       no
   MPN           =       no      MPN SCHMIDT  =       no
   ZAPTN         =       no      MPN WIGNER   =       no
   PERT Z        =   1.0000      FOLLOW ROOT  =        0
   NUM THREADS   =        1
   FILTER GUESS  =       no      SF RESTRICT  =       no
   OPDM          =       no      TRANS DENSITY=       no

   FILES         =  50 51 52 53

   EX ALLOW      =  1  1  1  1  1  1 
   STATE AVERAGE =  1(1.00) 

ORBITALS:
   NMO          =       27
   FROZEN CORE  =        3      RESTR CORE   =        0
   FROZEN VIRT  =        0      RESTR VIRT   =        0
   DROPPED CORE =        3      DROPPED VIRT =        0
   EXPLICIT CORE=        0      ORBS IN CI   =       24
   NUM ALP      =        6      NUM BET      =        6
   NUM ALP EXPL =        3      NUM BET EXPL =        3
   IOPEN        =       no

   DOCC            =   4   0   0   0   0   2   0   0 
   SOCC            =   0   0   0   0   0   0   0   0 

   FROZEN DOCC     =   2   0   0   0   0   1   0   0 
   RESTRICTED DOCC =   0   0   0   0   0   0   0   0 
   ACTIVE          =   6   0   2   2   0   6   4   4 
   RESTRICTED UOCC =   0   0   0   0   0   0   0   0 
   FROZEN UOCC     =   0   0   0   0   0   0   0   0 
         ---------------------------------------------------------


   ==> Setting up CI strings <==

   There are 2024 alpha and 2024 beta strings
   The CI space requires 517872 (5.18E+05) determinants and 8 blocks


   ==> Transforming CI integrals <==
	Presorting SO-basis two-electron integrals.
	Sorting File: SO Ints (nn|nn) nbuckets = 1
	Transforming the one-electron integrals and constructing Fock matrices
	Starting first half-transformation.
	Sorting half-transformed integrals.
	First half integral transformation complete.
	Starting second half-transformation.
	Two-electron integral transformation complete.

*** H0 Block Eigenvalue = -43.80306238

Find the roots by the Simultaneous Expansion Method (Block Davidson Method)
Using 1 initial trial vectors
Iter  0  Root  1 = -43.803062378   Delta_E -4.864E+00   Delta_C  1.610E-01  
Iter  1  Root  1 = -43.827106477   Delta_E -2.404E-02   Delta_C  5.809E-02  
Iter  2  Root  1 = -43.830044643   Delta_E -2.938E-03   Delta_C  3.419E-02  
Iter  3  Root  1 = -43.831005957   Delta_E -9.613E-04   Delta_C  1.608E-02  
Iter  4  Root  1 = -43.831183497   Delta_E -1.775E-04   Delta_C  8.545E-03  
Iter  5  Root  1 = -43.831220702   Delta_E -3.721E-05   Delta_C  4.774E-03  
Iter  6  Root  1 = -43.831233181   Delta_E -1.248E-05   Delta_C  2.670E-03  
Iter  7  Root  1 = -43.831238540   Delta_E -5.358E-06   Delta_C  1.784E-03  
Iter  8  Root  1 = -43.831240870   Delta_E -2.330E-06   Delta_C  1.231E-03  
Iter  9  Root  1 = -43.831241824   Delta_E -9.541E-07   Delta_C  7.166E-04  
Iter 10  Root  1 = -43.831242122   Delta_E -2.979E-07   Delta_C  3.946E-04  
Iter 11  Root  1 = -43.831242201   Delta_E -7.936E-08   Delta_C  2.229E-04  
Iter 12  Root  1 = -43.831242225   Delta_E -2.427E-08   Delta_C  1.138E-04  
Iter 13  Root  1 = -43.831242232   Delta_E -6.863E-09   Delta_C  6.473E-05  
Iter 14  Root  1 = -43.831242235   Delta_E -2.539E-09   Delta_C  3.898E-05  
Iter 15  Root  1 = -43.831242236   Delta_E -1.029E-09   Delta_C  2.242E-05  
Iter 16  Root  1 = -43.831242236   Delta_E -3.001E-10   Delta_C  1.213E-05  
Iter 17  Root  1 = -43.831242236   Delta_E -7.755E-11   Delta_C  6.604E-06  
Iter 18  Root  1 = -43.831242236   Delta_E -2.425E-11   Delta_C  3.447E-06  
Iter 19  Root  1 = -43.831242236   Delta_E -6.904E-12   Delta_C  1.753E-06  
Iter 20  Root  1 = -43.831242236   Delta_E -1.854E-12   Delta_C  9.524E-07  
Iter 21  Root  1 = -43.831242236   Delta_E -5.755E-13   Delta_C  5.593E-07  
Warning: Norm of correction (root 0) is < 1.0E-13
Iter 22  Root  1 = -43.831242236   Delta_E -1.945E-13   Delta_C  3.272E-07  
Warning: Norm of correction (root 0) is < 1.0E-13
Iter 23  Root  1 = -43.831242236   Delta_E -6.128E-14   Delta_C  1.728E-07  
Warning: Norm of correction (root 0) is < 1.0E-13
Iter 24  Root  1 = -43.831242236   Delta_E -1.155E-14   Delta_C  8.607E-08  

Maximum number of CI iterations reached

* ROOT 1 CI total energy = -43.8312422361319


The 20 most important determinants

    1   -0.843316  (    0,    0)  3AgX  4AgX  2B1uX  
    2    0.213436  ( 1242, 1242)  3AgX  2B1uX  3B1uX  
    3    0.084711  (    1,   17)  3AgX  4AgB  2B1uA  5AgA  3B1uB  
    4    0.084711  (   17,    1)  3AgX  4AgA  2B1uB  5AgB  3B1uA  
    5    0.074450  ( 1562, 1562)  3AgX  2B1uX  1B2uX  
    6    0.074450  ( 1836, 1836)  3AgX  2B1uX  1B3uX  
    7    0.063303  ( 1500, 1500)  3AgX  4AgX  1B3gX  
    8    0.063303  ( 1762, 1762)  3AgX  4AgX  1B2gX  
    9    0.060736  ( 1837, 1837)  4AgX  2B1uX  1B3uX  
   10    0.060736  ( 1563, 1563)  4AgX  2B1uX  1B2uX  
   11    0.060694  (   17,   17)  3AgX  4AgX  3B1uX  
   12   -0.059392  ( 1563, 1598)  3AgB  4AgA  2B1uX  1B2uA  2B2uB  
   13   -0.059392  ( 1598, 1563)  3AgA  4AgB  2B1uX  1B2uB  2B2uA  
   14   -0.059392  ( 1837, 1880)  3AgB  4AgA  2B1uX  1B3uA  2B3uB  
   15   -0.059392  ( 1880, 1837)  3AgA  4AgB  2B1uX  1B3uB  2B3uA  
   16    0.054000  ( 1880, 1880)  3AgX  2B1uX  2B3uX  
   17    0.054000  ( 1598, 1598)  3AgX  2B1uX  2B2uX  
   18    0.051335  (  506,  506)  3AgX  2B1uX  1B2gX  
   19    0.051335  (  750,  750)  3AgX  2B1uX  1B3gX  
   20    0.051218  ( 1210, 1210)  3AgX  4AgX  5AgX  


An error has occurred python-side. Traceback (most recent call last):

  File "<string>", line 39, in <module>

  File "/home/yhliu/psi4conda/share/psi4/python/driver.py", line 446, in energy
    wfn = procedures['energy'][lowername](lowername, molecule=molecule, **kwargs)

  File "/home/yhliu/psi4conda/share/psi4/python/procedures/proc.py", line 2595, in run_detci
    ci_wfn = psi4.detci(ref_wfn)

RuntimeError: 
Fatal Error: CIWavefunction: Iterations did not converge!
Error occurred in file: /scratch/cdsgroup/conda-builds/work/src/bin/detci/ciwave.cc on line: 364
The most recent 5 function calls were:

psi::PsiException::PsiException(std::string, char const*, int)
psi::detci::CIWavefunction::convergence_death()
psi::detci::CIWavefunction::diag_h()
psi::detci::CIWavefunction::compute_energy()
psi::detci::detci(boost::shared_ptr<psi::Wavefunction>, psi::Options&)



