    -----------------------------------------------------------------------
          Psi4: An Open-Source Ab Initio Electronic Structure Package
                              Psi4 1.0.0 Driver

                          Git: Rev {master} 6a9a71b dirty

    J. M. Turney, A. C. Simmonett, R. M. Parrish, E. G. Hohenstein,
    F. A. Evangelista, J. T. Fermann, B. J. Mintz, L. A. Burns, J. J. Wilke,
    M. L. Abrams, N. J. Russ, M. L. Leininger, C. L. Janssen, E. T. Seidl,
    W. D. Allen, H. F. Schaefer, R. A. King, E. F. Valeev, C. D. Sherrill,
    and T. D. Crawford, WIREs Comput. Mol. Sci. 2, 556-565 (2012)
    (doi: 10.1002/wcms.93)

                         Additional Contributions by
    A. E. DePrince, U. Bozkaya, A. Yu. Sokolov, D. G. A. Smith, R. Di Remigio,
    R. M. Richard, J. F. Gonthier, H. R. McAlexander, M. Saitow, and
    B. P. Pritchard
    -----------------------------------------------------------------------


    Psi4 started on: Fri Jul 28 09:56:57 2017

    Process ID:  12153
    PSI4DATADIR: /home/yhliu/psi4conda/share/psi4
    Memory level set to 256.000 MB

  ==> Input File <==

--------------------------------------------------------------------------

memory 10 Gb
molecule be2 {
0 1
Be  0.0  0.0  0.0
Be  0.0  0.0  2.000 
Be  0.0  0.0  4.000 
units angstrom    
}

set basis 6-31g
set freeze_core true
set PRINT_BASIS True
set PUREAM False
set E_CONVERGENCE 1e-14
energy('fci')
--------------------------------------------------------------------------
/home/yhliu/psi4conda/lib/python2.7/site-packages/v2rdm_casscf/v2rdm_casscf.so loaded.

  Memory set to  10.000 GiB by Python script.

*** tstart() called on compute-0-1.local
*** at Fri Jul 28 09:56:57 2017


         ---------------------------------------------------------
                                   SCF
            by Justin Turney, Rob Parrish, and Andy Simmonett
                              RHF Reference
                        1 Threads,  10000 MiB Core
         ---------------------------------------------------------

  ==> Geometry <==

    Molecular point group: d2h
    Full point group: D_inf_h

    Geometry (in Angstrom), charge = 0, multiplicity = 1:

       Center              X                  Y                   Z               Mass       
    ------------   -----------------  -----------------  -----------------  -----------------
          BE          0.000000000000     0.000000000000    -2.000000000000     9.012182201000
          BE          0.000000000000     0.000000000000     0.000000000000     9.012182201000
          BE          0.000000000000     0.000000000000     2.000000000000     9.012182201000

  Running in d2h symmetry.

  Rotational constants: A = ************  B =      0.23382  C =      0.23382 [cm^-1]
  Rotational constants: A = ************  B =   7009.66472  C =   7009.66472 [MHz]
  Nuclear repulsion =   10.583544171800000

  Charge       = 0
  Multiplicity = 1
  Electrons    = 12
  Nalpha       = 6
  Nbeta        = 6

  ==> Algorithm <==

  SCF Algorithm Type is PK.
  DIIS enabled.
  MOM disabled.
  Fractional occupation disabled.
  Guess Type is SAD.
  Energy threshold   = 1.00e-14
  Density threshold  = 1.00e-08
  Integral threshold = 0.00e+00

  ==> Primary Basis <==

  Basis Set: 6-31G
    Number of shells: 15
    Number of basis function: 27
    Number of Cartesian functions: 27
    Spherical Harmonics?: false
    Max angular momentum: 1

  -AO BASIS SET INFORMATION:
    Name                   = 6-31G
    Total number of shells = 15
    Number of primitives   = 42
    Number of AO           = 27
    Number of SO           = 27
    Maximum AM             = 1
    Spherical Harmonics    = FALSE

  -Contraction Scheme:
    Atom   Type   All Primitives // Shells:
   ------ ------ --------------------------
       1    BE     10s 4p // 3s 2p 
       2    BE     10s 4p // 3s 2p 
       3    BE     10s 4p // 3s 2p 

  ==> AO Basis Functions <==

    [ 6-31G ]
    cartesian
    ****
   BE   1
    S   6 1.00
                      1264.58570000           0.00194480
                       189.93681000           0.01483510
                        43.15908900           0.07209060
                        12.09866300           0.23715420
                         3.80632320           0.46919870
                         1.27289030           0.35652020
    S   3 1.00
                         3.19646310          -0.11264870
                         0.74781330          -0.22950640
                         0.21996630           1.18691670
    P   3 1.00
                         3.19646310           0.05598020
                         0.74781330           0.26155060
                         0.21996630           0.79397230
    S   1 1.00
                         0.08230990           1.00000000
    P   1 1.00
                         0.08230990           1.00000000
    ****
   BE   2
    S   6 1.00
                      1264.58570000           0.00194480
                       189.93681000           0.01483510
                        43.15908900           0.07209060
                        12.09866300           0.23715420
                         3.80632320           0.46919870
                         1.27289030           0.35652020
    S   3 1.00
                         3.19646310          -0.11264870
                         0.74781330          -0.22950640
                         0.21996630           1.18691670
    P   3 1.00
                         3.19646310           0.05598020
                         0.74781330           0.26155060
                         0.21996630           0.79397230
    S   1 1.00
                         0.08230990           1.00000000
    P   1 1.00
                         0.08230990           1.00000000
    ****

  ==> Pre-Iterations <==

   -------------------------------------------------------
    Irrep   Nso     Nmo     Nalpha   Nbeta   Ndocc  Nsocc
   -------------------------------------------------------
     Ag         8       8       0       0       0       0
     B1g        0       0       0       0       0       0
     B2g        2       2       0       0       0       0
     B3g        2       2       0       0       0       0
     Au         0       0       0       0       0       0
     B1u        7       7       0       0       0       0
     B2u        4       4       0       0       0       0
     B3u        4       4       0       0       0       0
   -------------------------------------------------------
    Total      27      27       6       6       6       0
   -------------------------------------------------------

  ==> Integral Setup <==

  Using in-core PK algorithm.
   Calculation information:
      Number of atoms:                   3
      Number of AO shells:              15
      Number of primitives:             42
      Number of atomic orbitals:        27
      Number of basis functions:        27

      Integral cutoff                 1.00e-12
      Number of threads:                 1

  Performing in-core PK
  Using 143262 doubles for integral storage.
  We computed 7140 shell quartets total.
  Whereas there are 7260 unique shell quartets.
  ==> DiskJK: Disk-Based J/K Matrices <==

    J tasked:                  Yes
    K tasked:                  Yes
    wK tasked:                  No
    Memory (MB):              7152
    Schwarz Cutoff:          1E-12

    OpenMP threads:              1
  Minimum eigenvalue in the overlap matrix is 2.5471458502E-03.
  Using Symmetric Orthogonalization.
  SCF Guess: Superposition of Atomic Densities via on-the-fly atomic UHF.

  ==> Iterations <==

                        Total Energy        Delta E     RMS |[F,P]|

   @RHF iter   0:   -44.18848323630296   -4.41885e+01   6.75973e-02 
   @RHF iter   1:   -43.62239402934451    5.66089e-01   7.30806e-03 
   @RHF iter   2:   -43.64113709797581   -1.87431e-02   2.80476e-03 DIIS
   @RHF iter   3:   -43.64392144332831   -2.78435e-03   1.35430e-03 DIIS
   @RHF iter   4:   -43.64512085467717   -1.19941e-03   2.30593e-04 DIIS
   @RHF iter   5:   -43.64516253992971   -4.16853e-05   1.39844e-05 DIIS
   @RHF iter   6:   -43.64516261979375   -7.98640e-08   1.96804e-06 DIIS
   @RHF iter   7:   -43.64516262114682   -1.35307e-09   3.42043e-07 DIIS
   @RHF iter   8:   -43.64516262119253   -4.57021e-11   4.27018e-08 DIIS
   @RHF iter   9:   -43.64516262119329   -7.67386e-13   6.59449e-09 DIIS
   @RHF iter  10:   -43.64516262119330   -7.10543e-15   3.26966e-10 DIIS

  ==> Post-Iterations <==

    Orbital Energies (a.u.)
    -----------------------

    Doubly Occupied:                                                      

       1Ag    -4.690657     1B1u   -4.690615     2Ag    -4.685889  
       3Ag    -0.449573     2B1u   -0.362700     4Ag    -0.156789  

    Virtual:                                                              

       3B1u    0.002754     1B2u    0.013989     1B3u    0.013989  
       1B2g    0.088650     1B3g    0.088650     2B2u    0.193193  
       2B3u    0.193193     5Ag     0.274953     4B1u    0.310937  
       6Ag     0.347732     3B2u    0.426212     3B3u    0.426212  
       5B1u    0.464773     2B2g    0.483733     2B3g    0.483733  
       7Ag     0.496713     4B3u    0.537618     4B2u    0.537618  
       6B1u    0.672501     8Ag     0.774250     7B1u    0.810508  

    Final Occupation by Irrep:
             Ag   B1g   B2g   B3g    Au   B1u   B2u   B3u 
    DOCC [     4,    0,    0,    0,    0,    2,    0,    0 ]

  Energy converged.

  @RHF Final Energy:   -43.64516262119330

   => Energetics <=

    Nuclear Repulsion Energy =             10.5835441717999998
    One-Electron Energy =                 -78.3849665167358012
    Two-Electron Energy =                  24.1562597237425010
    DFT Exchange-Correlation Energy =       0.0000000000000000
    Empirical Dispersion Energy =           0.0000000000000000
    PCM Polarization Energy =               0.0000000000000000
    EFP Energy =                            0.0000000000000000
    Total Energy =                        -43.6451626211933004


  Saving occupied orbitals to File 180.

*** tstop() called on compute-0-1.local at Fri Jul 28 09:56:57 2017
Module time:
	user time   =       0.17 seconds =       0.00 minutes
	system time =       0.01 seconds =       0.00 minutes
	total time  =          0 seconds =       0.00 minutes
Total time:
	user time   =       0.17 seconds =       0.00 minutes
	system time =       0.01 seconds =       0.00 minutes
	total time  =          0 seconds =       0.00 minutes


Properties will be evaluated at   0.000000,   0.000000,   0.000000 Bohr

Properties computed using the SCF density matrix

  Nuclear Dipole Moment: (a.u.)
     X:     0.0000      Y:     0.0000      Z:     0.0000

  Electronic Dipole Moment: (a.u.)
     X:     0.0000      Y:     0.0000      Z:     0.0000

  Dipole Moment: (a.u.)
     X:     0.0000      Y:     0.0000      Z:     0.0000     Total:     0.0000

  Dipole Moment: (Debye)
     X:     0.0000      Y:     0.0000      Z:     0.0000     Total:     0.0000

 MINTS: Wrapper to libmints.
   by Justin Turney

   Calculation information:
      Number of atoms:                   3
      Number of AO shells:              15
      Number of SO shells:              10
      Number of primitives:             42
      Number of atomic orbitals:        27
      Number of basis functions:        27

      Number of irreps:                  8
      Integral cutoff                 0.00e+00
      Number of functions per irrep: [   8    0    2    2    0    7    4    4 ]

 OEINTS: Overlap, kinetic, potential, dipole, and quadrupole integrals
         stored in file 35.

      Computing two-electron integrals...done
      Computed 11211 non-zero two-electron integrals.
        Stored in file 33.


         ---------------------------------------------------------
                                 D E T C I  

                             C. David Sherrill
                             Matt L. Leininger
                               18 June 1999
         ---------------------------------------------------------


DETCI PARAMETERS: 
   EX LEVEL      =        6      H0 BLOCKSIZE =     1000
   VAL EX LEVEL  =        0      H0 GUESS SIZE=     1000
   H0COUPLINGSIZE=        0      H0 COUPLING  =       no
   MAXITER       =       24      NUM PRINT    =       20
   NUM ROOTS     =        1      ICORE        =        1
   PRINT         =        1      FCI          =      yes
   R CONV        = 1.00e-04      MIXED        =      yes
   E CONV        = 1.00e-14      MIXED4       =      yes
   R4S           =       no      REPL OTF     =       no
   DIAG METHOD   =      SEM
   PRECONDITIONER= DAVIDSON      UPDATE       = DAVIDSON
   S             =   0.0000      Ms0          =      yes
   MAX NUM VECS  =       25
   RESTART       =       no
   GUESS VECTOR  =  H0BLOCK      OPENTYPE     =     NONE
   REF SYM       =     auto
   COLLAPSE SIZE =        1      HD AVG       = EVANGELISTI
   LSE           =       no      LSE ITER     =        0
   HD OTF        =      yes      NO DFILE     =       no
   MPN           =       no      MPN SCHMIDT  =       no
   ZAPTN         =       no      MPN WIGNER   =       no
   PERT Z        =   1.0000      FOLLOW ROOT  =        0
   NUM THREADS   =        1
   FILTER GUESS  =       no      SF RESTRICT  =       no
   OPDM          =       no      TRANS DENSITY=       no

   FILES         =  50 51 52 53

   EX ALLOW      =  1  1  1  1  1  1 
   STATE AVERAGE =  1(1.00) 

ORBITALS:
   NMO          =       27
   FROZEN CORE  =        3      RESTR CORE   =        0
   FROZEN VIRT  =        0      RESTR VIRT   =        0
   DROPPED CORE =        3      DROPPED VIRT =        0
   EXPLICIT CORE=        0      ORBS IN CI   =       24
   NUM ALP      =        6      NUM BET      =        6
   NUM ALP EXPL =        3      NUM BET EXPL =        3
   IOPEN        =       no

   DOCC            =   4   0   0   0   0   2   0   0 
   SOCC            =   0   0   0   0   0   0   0   0 

   FROZEN DOCC     =   2   0   0   0   0   1   0   0 
   RESTRICTED DOCC =   0   0   0   0   0   0   0   0 
   ACTIVE          =   6   0   2   2   0   6   4   4 
   RESTRICTED UOCC =   0   0   0   0   0   0   0   0 
   FROZEN UOCC     =   0   0   0   0   0   0   0   0 
         ---------------------------------------------------------


   ==> Setting up CI strings <==

   There are 2024 alpha and 2024 beta strings
   The CI space requires 517872 (5.18E+05) determinants and 8 blocks


   ==> Transforming CI integrals <==
	Presorting SO-basis two-electron integrals.
	Sorting File: SO Ints (nn|nn) nbuckets = 1
	Transforming the one-electron integrals and constructing Fock matrices
	Starting first half-transformation.
	Sorting half-transformed integrals.
	First half integral transformation complete.
	Starting second half-transformation.
	Two-electron integral transformation complete.

*** H0 Block Eigenvalue = -43.78687770

Find the roots by the Simultaneous Expansion Method (Block Davidson Method)
Using 1 initial trial vectors
Iter  0  Root  1 = -43.786877696   Delta_E -5.604E+00   Delta_C  1.830E-01  
Iter  1  Root  1 = -43.813015416   Delta_E -2.614E-02   Delta_C  5.363E-02  
Iter  2  Root  1 = -43.814952433   Delta_E -1.937E-03   Delta_C  2.451E-02  
Iter  3  Root  1 = -43.815370501   Delta_E -4.181E-04   Delta_C  1.225E-02  
Iter  4  Root  1 = -43.815496863   Delta_E -1.264E-04   Delta_C  7.113E-03  
Iter  5  Root  1 = -43.815536189   Delta_E -3.933E-05   Delta_C  5.359E-03  
Iter  6  Root  1 = -43.815555343   Delta_E -1.915E-05   Delta_C  3.985E-03  
Iter  7  Root  1 = -43.815570513   Delta_E -1.517E-05   Delta_C  3.047E-03  
Iter  8  Root  1 = -43.815578811   Delta_E -8.298E-06   Delta_C  2.073E-03  
Iter  9  Root  1 = -43.815582038   Delta_E -3.227E-06   Delta_C  1.280E-03  
Iter 10  Root  1 = -43.815583346   Delta_E -1.308E-06   Delta_C  8.447E-04  
Iter 11  Root  1 = -43.815583888   Delta_E -5.422E-07   Delta_C  5.827E-04  
Iter 12  Root  1 = -43.815584085   Delta_E -1.968E-07   Delta_C  3.470E-04  
Iter 13  Root  1 = -43.815584149   Delta_E -6.459E-08   Delta_C  1.698E-04  
Iter 14  Root  1 = -43.815584164   Delta_E -1.486E-08   Delta_C  8.002E-05  
Iter 15  Root  1 = -43.815584168   Delta_E -3.292E-09   Delta_C  3.848E-05  
Iter 16  Root  1 = -43.815584168   Delta_E -7.711E-10   Delta_C  1.959E-05  
Iter 17  Root  1 = -43.815584169   Delta_E -1.919E-10   Delta_C  9.871E-06  
Iter 18  Root  1 = -43.815584169   Delta_E -4.915E-11   Delta_C  4.896E-06  
Iter 19  Root  1 = -43.815584169   Delta_E -1.227E-11   Delta_C  2.443E-06  
Iter 20  Root  1 = -43.815584169   Delta_E -3.234E-12   Delta_C  1.214E-06  
Iter 21  Root  1 = -43.815584169   Delta_E -7.843E-13   Delta_C  6.098E-07  
Warning: Norm of correction (root 0) is < 1.0E-13
Iter 22  Root  1 = -43.815584169   Delta_E -1.812E-13   Delta_C  2.973E-07  
Warning: Norm of correction (root 0) is < 1.0E-13
Iter 23  Root  1 = -43.815584169   Delta_E -4.619E-14   Delta_C  1.439E-07  
Warning: Norm of correction (root 0) is < 1.0E-13
Iter 24  Root  1 = -43.815584169   Delta_E -4.441E-15   Delta_C  7.505E-08 c

Maximum number of CI iterations reached

* ROOT 1 CI total energy = -43.8155841686544


The 20 most important determinants

    1    0.755778  (    0,    0)  3AgX  4AgX  2B1uX  
    2   -0.509727  ( 1242, 1242)  3AgX  2B1uX  3B1uX  
    3   -0.083025  ( 1562, 1562)  3AgX  2B1uX  1B2uX  
    4   -0.083025  ( 1836, 1836)  3AgX  2B1uX  1B3uX  
    5   -0.061248  ( 1563, 1563)  4AgX  2B1uX  1B2uX  
    6   -0.061248  ( 1837, 1837)  4AgX  2B1uX  1B3uX  
    7   -0.060863  (    0,   17)  3AgX  4AgX  2B1uA  3B1uB  
    8   -0.060863  (   17,    0)  3AgX  4AgX  2B1uB  3B1uA  
    9    0.048476  (  839,  839)  2B1uX  3B1uX  1B2uX  
   10    0.048476  (  611,  611)  2B1uX  3B1uX  1B3uX  
   11    0.044586  ( 1242, 1260)  3AgX  2B1uX  3B1uA  5B1uB  
   12    0.044586  ( 1260, 1242)  3AgX  2B1uX  3B1uB  5B1uA  
   13    0.042858  (    0,    6)  3AgX  4AgA  2B1uX  7AgB  
   14    0.042858  (    6,    0)  3AgX  4AgB  2B1uX  7AgA  
   15    0.039806  (  506,  594)  3AgX  4AgB  2B1uA  1B2gA  1B3uB  
   16    0.039806  (  594,  506)  3AgX  4AgA  2B1uB  1B2gB  1B3uA  
   17    0.039806  (  750,  822)  3AgX  4AgB  2B1uA  1B3gA  1B2uB  
   18    0.039806  (  822,  750)  3AgX  4AgA  2B1uB  1B3gB  1B2uA  
   19   -0.038827  (    1,   17)  3AgX  4AgB  2B1uA  5AgA  3B1uB  
   20   -0.038827  (   17,    1)  3AgX  4AgA  2B1uB  5AgB  3B1uA  


		 "A good bug is a dead bug" 

			 - Starship Troopers

		 "I didn't write FORTRAN.  That's the problem."

			 - Edward Valeev


*** Psi4 exiting successfully. Buy a developer a beer!
