    -----------------------------------------------------------------------
          Psi4: An Open-Source Ab Initio Electronic Structure Package
                              Psi4 1.0.0 Driver

                          Git: Rev {master} 6a9a71b dirty

    J. M. Turney, A. C. Simmonett, R. M. Parrish, E. G. Hohenstein,
    F. A. Evangelista, J. T. Fermann, B. J. Mintz, L. A. Burns, J. J. Wilke,
    M. L. Abrams, N. J. Russ, M. L. Leininger, C. L. Janssen, E. T. Seidl,
    W. D. Allen, H. F. Schaefer, R. A. King, E. F. Valeev, C. D. Sherrill,
    and T. D. Crawford, WIREs Comput. Mol. Sci. 2, 556-565 (2012)
    (doi: 10.1002/wcms.93)

                         Additional Contributions by
    A. E. DePrince, U. Bozkaya, A. Yu. Sokolov, D. G. A. Smith, R. Di Remigio,
    R. M. Richard, J. F. Gonthier, H. R. McAlexander, M. Saitow, and
    B. P. Pritchard
    -----------------------------------------------------------------------


    Psi4 started on: Fri Jul 28 09:56:35 2017

    Process ID:  12151
    PSI4DATADIR: /home/yhliu/psi4conda/share/psi4
    Memory level set to 256.000 MB

  ==> Input File <==

--------------------------------------------------------------------------

memory 10 Gb
molecule be2 {
0 1
Be  0.0  0.0  0.0
Be  0.0  0.0  1.800 
Be  0.0  0.0  3.600 
units angstrom    
}

set basis 6-31g
set freeze_core true
set PRINT_BASIS True
set PUREAM False
set E_CONVERGENCE 1e-14
energy('fci')
--------------------------------------------------------------------------
/home/yhliu/psi4conda/lib/python2.7/site-packages/v2rdm_casscf/v2rdm_casscf.so loaded.

  Memory set to  10.000 GiB by Python script.

*** tstart() called on compute-0-1.local
*** at Fri Jul 28 09:56:35 2017


         ---------------------------------------------------------
                                   SCF
            by Justin Turney, Rob Parrish, and Andy Simmonett
                              RHF Reference
                        1 Threads,  10000 MiB Core
         ---------------------------------------------------------

  ==> Geometry <==

    Molecular point group: d2h
    Full point group: D_inf_h

    Geometry (in Angstrom), charge = 0, multiplicity = 1:

       Center              X                  Y                   Z               Mass       
    ------------   -----------------  -----------------  -----------------  -----------------
          BE          0.000000000000     0.000000000000    -1.800000000000     9.012182201000
          BE          0.000000000000     0.000000000000     0.000000000000     9.012182201000
          BE          0.000000000000     0.000000000000     1.800000000000     9.012182201000

  Running in d2h symmetry.

  Rotational constants: A = ************  B =      0.28866  C =      0.28866 [cm^-1]
  Rotational constants: A = ************  B =   8653.90706  C =   8653.90706 [MHz]
  Nuclear repulsion =   11.759493524222222

  Charge       = 0
  Multiplicity = 1
  Electrons    = 12
  Nalpha       = 6
  Nbeta        = 6

  ==> Algorithm <==

  SCF Algorithm Type is PK.
  DIIS enabled.
  MOM disabled.
  Fractional occupation disabled.
  Guess Type is SAD.
  Energy threshold   = 1.00e-14
  Density threshold  = 1.00e-08
  Integral threshold = 0.00e+00

  ==> Primary Basis <==

  Basis Set: 6-31G
    Number of shells: 15
    Number of basis function: 27
    Number of Cartesian functions: 27
    Spherical Harmonics?: false
    Max angular momentum: 1

  -AO BASIS SET INFORMATION:
    Name                   = 6-31G
    Total number of shells = 15
    Number of primitives   = 42
    Number of AO           = 27
    Number of SO           = 27
    Maximum AM             = 1
    Spherical Harmonics    = FALSE

  -Contraction Scheme:
    Atom   Type   All Primitives // Shells:
   ------ ------ --------------------------
       1    BE     10s 4p // 3s 2p 
       2    BE     10s 4p // 3s 2p 
       3    BE     10s 4p // 3s 2p 

  ==> AO Basis Functions <==

    [ 6-31G ]
    cartesian
    ****
   BE   1
    S   6 1.00
                      1264.58570000           0.00194480
                       189.93681000           0.01483510
                        43.15908900           0.07209060
                        12.09866300           0.23715420
                         3.80632320           0.46919870
                         1.27289030           0.35652020
    S   3 1.00
                         3.19646310          -0.11264870
                         0.74781330          -0.22950640
                         0.21996630           1.18691670
    P   3 1.00
                         3.19646310           0.05598020
                         0.74781330           0.26155060
                         0.21996630           0.79397230
    S   1 1.00
                         0.08230990           1.00000000
    P   1 1.00
                         0.08230990           1.00000000
    ****
   BE   2
    S   6 1.00
                      1264.58570000           0.00194480
                       189.93681000           0.01483510
                        43.15908900           0.07209060
                        12.09866300           0.23715420
                         3.80632320           0.46919870
                         1.27289030           0.35652020
    S   3 1.00
                         3.19646310          -0.11264870
                         0.74781330          -0.22950640
                         0.21996630           1.18691670
    P   3 1.00
                         3.19646310           0.05598020
                         0.74781330           0.26155060
                         0.21996630           0.79397230
    S   1 1.00
                         0.08230990           1.00000000
    P   1 1.00
                         0.08230990           1.00000000
    ****

  ==> Pre-Iterations <==

   -------------------------------------------------------
    Irrep   Nso     Nmo     Nalpha   Nbeta   Ndocc  Nsocc
   -------------------------------------------------------
     Ag         8       8       0       0       0       0
     B1g        0       0       0       0       0       0
     B2g        2       2       0       0       0       0
     B3g        2       2       0       0       0       0
     Au         0       0       0       0       0       0
     B1u        7       7       0       0       0       0
     B2u        4       4       0       0       0       0
     B3u        4       4       0       0       0       0
   -------------------------------------------------------
    Total      27      27       6       6       6       0
   -------------------------------------------------------

  ==> Integral Setup <==

  Using in-core PK algorithm.
   Calculation information:
      Number of atoms:                   3
      Number of AO shells:              15
      Number of primitives:             42
      Number of atomic orbitals:        27
      Number of basis functions:        27

      Integral cutoff                 1.00e-12
      Number of threads:                 1

  Performing in-core PK
  Using 143262 doubles for integral storage.
  We computed 7140 shell quartets total.
  Whereas there are 7260 unique shell quartets.
  ==> DiskJK: Disk-Based J/K Matrices <==

    J tasked:                  Yes
    K tasked:                  Yes
    wK tasked:                  No
    Memory (MB):              7152
    Schwarz Cutoff:          1E-12

    OpenMP threads:              1
  Minimum eigenvalue in the overlap matrix is 1.1257949372E-03.
  Using Symmetric Orthogonalization.
  SCF Guess: Superposition of Atomic Densities via on-the-fly atomic UHF.

  ==> Iterations <==

                        Total Energy        Delta E     RMS |[F,P]|

   @RHF iter   0:   -44.35137959487412   -4.43514e+01   8.87663e-02 
   @RHF iter   1:   -43.56097477280980    7.90405e-01   8.81408e-03 
   @RHF iter   2:   -43.58714689241546   -2.61721e-02   3.29272e-03 DIIS
   @RHF iter   3:   -43.59036898342089   -3.22209e-03   1.54347e-03 DIIS
   @RHF iter   4:   -43.59172905519245   -1.36007e-03   2.58892e-04 DIIS
   @RHF iter   5:   -43.59177839156851   -4.93364e-05   1.77280e-05 DIIS
   @RHF iter   6:   -43.59177850175102   -1.10183e-07   2.06979e-06 DIIS
   @RHF iter   7:   -43.59177850299854   -1.24752e-09   2.54733e-07 DIIS
   @RHF iter   8:   -43.59177850302063   -2.20979e-11   3.12861e-08 DIIS
   @RHF iter   9:   -43.59177850302100   -3.69482e-13   6.99192e-09 DIIS
   @RHF iter  10:   -43.59177850302104   -3.55271e-14   4.91072e-10 DIIS
   @RHF iter  11:   -43.59177850302108   -3.55271e-14   3.67610e-11 DIIS
   @RHF iter  12:   -43.59177850302106    1.42109e-14   4.93814e-12 DIIS
   @RHF iter  13:   -43.59177850302103    2.84217e-14   5.07968e-13 DIIS
   @RHF iter  14:   -43.59177850302105   -1.42109e-14   5.61546e-14 DIIS
   @RHF iter  15:   -43.59177850302107   -2.13163e-14   1.78899e-14 DIIS
   @RHF iter  16:   -43.59177850302106    7.10543e-15   9.40611e-15 DIIS

  ==> Post-Iterations <==

    Orbital Energies (a.u.)
    -----------------------

    Doubly Occupied:                                                      

       1Ag    -4.683799     1B1u   -4.683687     2Ag    -4.671739  
       3Ag    -0.468532     2B1u   -0.375368     4Ag    -0.145901  

    Virtual:                                                              

       3B1u    0.003656     1B3u    0.004117     1B2u    0.004117  
       1B3g    0.092557     1B2g    0.092557     2B2u    0.210888  
       2B3u    0.210888     5Ag     0.307734     4B1u    0.308226  
       6Ag     0.326308     3B2u    0.408154     3B3u    0.408154  
       5B1u    0.469790     2B3g    0.482549     2B2g    0.482549  
       7Ag     0.526763     4B2u    0.562258     4B3u    0.562258  
       6B1u    0.687619     8Ag     0.860331     7B1u    0.973212  

    Final Occupation by Irrep:
             Ag   B1g   B2g   B3g    Au   B1u   B2u   B3u 
    DOCC [     4,    0,    0,    0,    0,    2,    0,    0 ]

  Energy converged.

  @RHF Final Energy:   -43.59177850302106

   => Energetics <=

    Nuclear Repulsion Energy =             11.7594935242222220
    One-Electron Energy =                 -80.6444910246763271
    Two-Electron Energy =                  25.2932189974330512
    DFT Exchange-Correlation Energy =       0.0000000000000000
    Empirical Dispersion Energy =           0.0000000000000000
    PCM Polarization Energy =               0.0000000000000000
    EFP Energy =                            0.0000000000000000
    Total Energy =                        -43.5917785030210538


  Saving occupied orbitals to File 180.

*** tstop() called on compute-0-1.local at Fri Jul 28 09:56:36 2017
Module time:
	user time   =       0.22 seconds =       0.00 minutes
	system time =       0.00 seconds =       0.00 minutes
	total time  =          1 seconds =       0.02 minutes
Total time:
	user time   =       0.22 seconds =       0.00 minutes
	system time =       0.00 seconds =       0.00 minutes
	total time  =          1 seconds =       0.02 minutes


Properties will be evaluated at   0.000000,   0.000000,   0.000000 Bohr

Properties computed using the SCF density matrix

  Nuclear Dipole Moment: (a.u.)
     X:     0.0000      Y:     0.0000      Z:     0.0000

  Electronic Dipole Moment: (a.u.)
     X:     0.0000      Y:     0.0000      Z:     0.0000

  Dipole Moment: (a.u.)
     X:     0.0000      Y:     0.0000      Z:     0.0000     Total:     0.0000

  Dipole Moment: (Debye)
     X:     0.0000      Y:     0.0000      Z:     0.0000     Total:     0.0000

 MINTS: Wrapper to libmints.
   by Justin Turney

   Calculation information:
      Number of atoms:                   3
      Number of AO shells:              15
      Number of SO shells:              10
      Number of primitives:             42
      Number of atomic orbitals:        27
      Number of basis functions:        27

      Number of irreps:                  8
      Integral cutoff                 0.00e+00
      Number of functions per irrep: [   8    0    2    2    0    7    4    4 ]

 OEINTS: Overlap, kinetic, potential, dipole, and quadrupole integrals
         stored in file 35.

      Computing two-electron integrals...done
      Computed 11211 non-zero two-electron integrals.
        Stored in file 33.


         ---------------------------------------------------------
                                 D E T C I  

                             C. David Sherrill
                             Matt L. Leininger
                               18 June 1999
         ---------------------------------------------------------


DETCI PARAMETERS: 
   EX LEVEL      =        6      H0 BLOCKSIZE =     1000
   VAL EX LEVEL  =        0      H0 GUESS SIZE=     1000
   H0COUPLINGSIZE=        0      H0 COUPLING  =       no
   MAXITER       =       24      NUM PRINT    =       20
   NUM ROOTS     =        1      ICORE        =        1
   PRINT         =        1      FCI          =      yes
   R CONV        = 1.00e-04      MIXED        =      yes
   E CONV        = 1.00e-14      MIXED4       =      yes
   R4S           =       no      REPL OTF     =       no
   DIAG METHOD   =      SEM
   PRECONDITIONER= DAVIDSON      UPDATE       = DAVIDSON
   S             =   0.0000      Ms0          =      yes
   MAX NUM VECS  =       25
   RESTART       =       no
   GUESS VECTOR  =  H0BLOCK      OPENTYPE     =     NONE
   REF SYM       =     auto
   COLLAPSE SIZE =        1      HD AVG       = EVANGELISTI
   LSE           =       no      LSE ITER     =        0
   HD OTF        =      yes      NO DFILE     =       no
   MPN           =       no      MPN SCHMIDT  =       no
   ZAPTN         =       no      MPN WIGNER   =       no
   PERT Z        =   1.0000      FOLLOW ROOT  =        0
   NUM THREADS   =        1
   FILTER GUESS  =       no      SF RESTRICT  =       no
   OPDM          =       no      TRANS DENSITY=       no

   FILES         =  50 51 52 53

   EX ALLOW      =  1  1  1  1  1  1 
   STATE AVERAGE =  1(1.00) 

ORBITALS:
   NMO          =       27
   FROZEN CORE  =        3      RESTR CORE   =        0
   FROZEN VIRT  =        0      RESTR VIRT   =        0
   DROPPED CORE =        3      DROPPED VIRT =        0
   EXPLICIT CORE=        0      ORBS IN CI   =       24
   NUM ALP      =        6      NUM BET      =        6
   NUM ALP EXPL =        3      NUM BET EXPL =        3
   IOPEN        =       no

   DOCC            =   4   0   0   0   0   2   0   0 
   SOCC            =   0   0   0   0   0   0   0   0 

   FROZEN DOCC     =   2   0   0   0   0   1   0   0 
   RESTRICTED DOCC =   0   0   0   0   0   0   0   0 
   ACTIVE          =   6   0   2   2   0   6   4   4 
   RESTRICTED UOCC =   0   0   0   0   0   0   0   0 
   FROZEN UOCC     =   0   0   0   0   0   0   0   0 
         ---------------------------------------------------------


   ==> Setting up CI strings <==

   There are 2024 alpha and 2024 beta strings
   The CI space requires 517872 (5.18E+05) determinants and 8 blocks


   ==> Transforming CI integrals <==
	Presorting SO-basis two-electron integrals.
	Sorting File: SO Ints (nn|nn) nbuckets = 1
	Transforming the one-electron integrals and constructing Fock matrices
	Starting first half-transformation.
	Sorting half-transformed integrals.
	First half integral transformation complete.
	Starting second half-transformation.
	Two-electron integral transformation complete.

*** H0 Block Eigenvalue = -43.74428229

Find the roots by the Simultaneous Expansion Method (Block Davidson Method)
Using 1 initial trial vectors
Iter  0  Root  1 = -43.744282294   Delta_E -5.855E+00   Delta_C  1.878E-01  
Iter  1  Root  1 = -43.770452304   Delta_E -2.617E-02   Delta_C  5.452E-02  
Iter  2  Root  1 = -43.772403490   Delta_E -1.951E-03   Delta_C  2.562E-02  
Iter  3  Root  1 = -43.772858390   Delta_E -4.549E-04   Delta_C  1.297E-02  
Iter  4  Root  1 = -43.773004764   Delta_E -1.464E-04   Delta_C  7.603E-03  
Iter  5  Root  1 = -43.773062172   Delta_E -5.741E-05   Delta_C  6.321E-03  
Iter  6  Root  1 = -43.773098129   Delta_E -3.596E-05   Delta_C  6.454E-03  
Iter  7  Root  1 = -43.773136391   Delta_E -3.826E-05   Delta_C  5.834E-03  
Iter  8  Root  1 = -43.773168176   Delta_E -3.179E-05   Delta_C  4.524E-03  
Iter  9  Root  1 = -43.773184380   Delta_E -1.620E-05   Delta_C  3.121E-03  
Iter 10  Root  1 = -43.773191765   Delta_E -7.386E-06   Delta_C  2.144E-03  
Iter 11  Root  1 = -43.773194802   Delta_E -3.036E-06   Delta_C  1.366E-03  
Iter 12  Root  1 = -43.773195842   Delta_E -1.040E-06   Delta_C  7.323E-04  
Iter 13  Root  1 = -43.773196131   Delta_E -2.890E-07   Delta_C  3.510E-04  
Iter 14  Root  1 = -43.773196197   Delta_E -6.649E-08   Delta_C  1.763E-04  
Iter 15  Root  1 = -43.773196215   Delta_E -1.745E-08   Delta_C  8.891E-05  
Iter 16  Root  1 = -43.773196220   Delta_E -4.658E-09   Delta_C  4.651E-05  
Iter 17  Root  1 = -43.773196221   Delta_E -1.255E-09   Delta_C  2.530E-05  
Iter 18  Root  1 = -43.773196221   Delta_E -3.723E-10   Delta_C  1.413E-05  
Iter 19  Root  1 = -43.773196221   Delta_E -1.179E-10   Delta_C  8.042E-06  
Iter 20  Root  1 = -43.773196221   Delta_E -3.595E-11   Delta_C  4.413E-06  
Iter 21  Root  1 = -43.773196221   Delta_E -1.100E-11   Delta_C  2.390E-06  
Iter 22  Root  1 = -43.773196221   Delta_E -3.273E-12   Delta_C  1.322E-06  
Iter 23  Root  1 = -43.773196221   Delta_E -1.036E-12   Delta_C  7.115E-07  
Warning: Norm of correction (root 0) is < 1.0E-13
Iter 24  Root  1 = -43.773196221   Delta_E -2.904E-13   Delta_C  3.753E-07  

Maximum number of CI iterations reached

* ROOT 1 CI total energy = -43.7731962213428


The 20 most important determinants

    1    0.727643  (    0,    0)  3AgX  4AgX  2B1uX  
    2   -0.530384  ( 1242, 1242)  3AgX  2B1uX  3B1uX  
    3   -0.130885  ( 1562, 1562)  3AgX  2B1uX  1B2uX  
    4   -0.130885  ( 1836, 1836)  3AgX  2B1uX  1B3uX  
    5   -0.062481  ( 1563, 1563)  4AgX  2B1uX  1B2uX  
    6   -0.062481  ( 1837, 1837)  4AgX  2B1uX  1B3uX  
    7    0.056149  (  611,  611)  2B1uX  3B1uX  1B3uX  
    8    0.056149  (  839,  839)  2B1uX  3B1uX  1B2uX  
    9   -0.052000  (    0,   17)  3AgX  4AgX  2B1uA  3B1uB  
   10   -0.052000  (   17,    0)  3AgX  4AgX  2B1uB  3B1uA  
   11    0.047998  ( 1242, 1260)  3AgX  2B1uX  3B1uA  5B1uB  
   12    0.047998  ( 1260, 1242)  3AgX  2B1uX  3B1uB  5B1uA  
   13    0.045413  ( 1568, 1568)  3AgX  3B1uX  1B2uX  
   14    0.045413  ( 1842, 1842)  3AgX  3B1uX  1B3uX  
   15    0.043858  (    0,    6)  3AgX  4AgA  2B1uX  7AgB  
   16    0.043858  (    6,    0)  3AgX  4AgB  2B1uX  7AgA  
   17    0.043105  (  750,  822)  3AgX  4AgB  2B1uA  1B3gA  1B2uB  
   18    0.043105  (  822,  750)  3AgX  4AgA  2B1uB  1B3gB  1B2uA  
   19    0.043105  (  506,  594)  3AgX  4AgB  2B1uA  1B2gA  1B3uB  
   20    0.043105  (  594,  506)  3AgX  4AgA  2B1uB  1B2gB  1B3uA  


An error has occurred python-side. Traceback (most recent call last):

  File "<string>", line 39, in <module>

  File "/home/yhliu/psi4conda/share/psi4/python/driver.py", line 446, in energy
    wfn = procedures['energy'][lowername](lowername, molecule=molecule, **kwargs)

  File "/home/yhliu/psi4conda/share/psi4/python/procedures/proc.py", line 2595, in run_detci
    ci_wfn = psi4.detci(ref_wfn)

RuntimeError: 
Fatal Error: CIWavefunction: Iterations did not converge!
Error occurred in file: /scratch/cdsgroup/conda-builds/work/src/bin/detci/ciwave.cc on line: 364
The most recent 5 function calls were:

psi::PsiException::PsiException(std::string, char const*, int)
psi::detci::CIWavefunction::convergence_death()
psi::detci::CIWavefunction::diag_h()
psi::detci::CIWavefunction::compute_energy()
psi::detci::detci(boost::shared_ptr<psi::Wavefunction>, psi::Options&)



