    -----------------------------------------------------------------------
          Psi4: An Open-Source Ab Initio Electronic Structure Package
                              Psi4 1.0.0 Driver

                          Git: Rev {master} 6a9a71b dirty

    J. M. Turney, A. C. Simmonett, R. M. Parrish, E. G. Hohenstein,
    F. A. Evangelista, J. T. Fermann, B. J. Mintz, L. A. Burns, J. J. Wilke,
    M. L. Abrams, N. J. Russ, M. L. Leininger, C. L. Janssen, E. T. Seidl,
    W. D. Allen, H. F. Schaefer, R. A. King, E. F. Valeev, C. D. Sherrill,
    and T. D. Crawford, WIREs Comput. Mol. Sci. 2, 556-565 (2012)
    (doi: 10.1002/wcms.93)

                         Additional Contributions by
    A. E. DePrince, U. Bozkaya, A. Yu. Sokolov, D. G. A. Smith, R. Di Remigio,
    R. M. Richard, J. F. Gonthier, H. R. McAlexander, M. Saitow, and
    B. P. Pritchard
    -----------------------------------------------------------------------


    Psi4 started on: Fri Jul 28 09:56:24 2017

    Process ID:  12150
    PSI4DATADIR: /home/yhliu/psi4conda/share/psi4
    Memory level set to 256.000 MB

  ==> Input File <==

--------------------------------------------------------------------------

memory 10 Gb
molecule be2 {
0 1
Be  0.0  0.0  0.0
Be  0.0  0.0  1.700 
Be  0.0  0.0  3.400 
units angstrom    
}

set basis 6-31g
set freeze_core true
set PRINT_BASIS True
set PUREAM False
set E_CONVERGENCE 1e-14
energy('fci')
--------------------------------------------------------------------------
/home/yhliu/psi4conda/lib/python2.7/site-packages/v2rdm_casscf/v2rdm_casscf.so loaded.

  Memory set to  10.000 GiB by Python script.

*** tstart() called on compute-0-1.local
*** at Fri Jul 28 09:56:25 2017


         ---------------------------------------------------------
                                   SCF
            by Justin Turney, Rob Parrish, and Andy Simmonett
                              RHF Reference
                        1 Threads,  10000 MiB Core
         ---------------------------------------------------------

  ==> Geometry <==

    Molecular point group: d2h
    Full point group: D_inf_h

    Geometry (in Angstrom), charge = 0, multiplicity = 1:

       Center              X                  Y                   Z               Mass       
    ------------   -----------------  -----------------  -----------------  -----------------
          BE          0.000000000000     0.000000000000    -1.700000000000     9.012182201000
          BE          0.000000000000     0.000000000000     0.000000000000     9.012182201000
          BE          0.000000000000     0.000000000000     1.700000000000     9.012182201000

  Running in d2h symmetry.

  Rotational constants: A = ************  B =      0.32362  C =      0.32362 [cm^-1]
  Rotational constants: A = ************  B =   9701.95809  C =   9701.95809 [MHz]
  Nuclear repulsion =   12.451228437411759

  Charge       = 0
  Multiplicity = 1
  Electrons    = 12
  Nalpha       = 6
  Nbeta        = 6

  ==> Algorithm <==

  SCF Algorithm Type is PK.
  DIIS enabled.
  MOM disabled.
  Fractional occupation disabled.
  Guess Type is SAD.
  Energy threshold   = 1.00e-14
  Density threshold  = 1.00e-08
  Integral threshold = 0.00e+00

  ==> Primary Basis <==

  Basis Set: 6-31G
    Number of shells: 15
    Number of basis function: 27
    Number of Cartesian functions: 27
    Spherical Harmonics?: false
    Max angular momentum: 1

  -AO BASIS SET INFORMATION:
    Name                   = 6-31G
    Total number of shells = 15
    Number of primitives   = 42
    Number of AO           = 27
    Number of SO           = 27
    Maximum AM             = 1
    Spherical Harmonics    = FALSE

  -Contraction Scheme:
    Atom   Type   All Primitives // Shells:
   ------ ------ --------------------------
       1    BE     10s 4p // 3s 2p 
       2    BE     10s 4p // 3s 2p 
       3    BE     10s 4p // 3s 2p 

  ==> AO Basis Functions <==

    [ 6-31G ]
    cartesian
    ****
   BE   1
    S   6 1.00
                      1264.58570000           0.00194480
                       189.93681000           0.01483510
                        43.15908900           0.07209060
                        12.09866300           0.23715420
                         3.80632320           0.46919870
                         1.27289030           0.35652020
    S   3 1.00
                         3.19646310          -0.11264870
                         0.74781330          -0.22950640
                         0.21996630           1.18691670
    P   3 1.00
                         3.19646310           0.05598020
                         0.74781330           0.26155060
                         0.21996630           0.79397230
    S   1 1.00
                         0.08230990           1.00000000
    P   1 1.00
                         0.08230990           1.00000000
    ****
   BE   2
    S   6 1.00
                      1264.58570000           0.00194480
                       189.93681000           0.01483510
                        43.15908900           0.07209060
                        12.09866300           0.23715420
                         3.80632320           0.46919870
                         1.27289030           0.35652020
    S   3 1.00
                         3.19646310          -0.11264870
                         0.74781330          -0.22950640
                         0.21996630           1.18691670
    P   3 1.00
                         3.19646310           0.05598020
                         0.74781330           0.26155060
                         0.21996630           0.79397230
    S   1 1.00
                         0.08230990           1.00000000
    P   1 1.00
                         0.08230990           1.00000000
    ****

  ==> Pre-Iterations <==

   -------------------------------------------------------
    Irrep   Nso     Nmo     Nalpha   Nbeta   Ndocc  Nsocc
   -------------------------------------------------------
     Ag         8       8       0       0       0       0
     B1g        0       0       0       0       0       0
     B2g        2       2       0       0       0       0
     B3g        2       2       0       0       0       0
     Au         0       0       0       0       0       0
     B1u        7       7       0       0       0       0
     B2u        4       4       0       0       0       0
     B3u        4       4       0       0       0       0
   -------------------------------------------------------
    Total      27      27       6       6       6       0
   -------------------------------------------------------

  ==> Integral Setup <==

  Using in-core PK algorithm.
   Calculation information:
      Number of atoms:                   3
      Number of AO shells:              15
      Number of primitives:             42
      Number of atomic orbitals:        27
      Number of basis functions:        27

      Integral cutoff                 1.00e-12
      Number of threads:                 1

  Performing in-core PK
  Using 143262 doubles for integral storage.
  We computed 7140 shell quartets total.
  Whereas there are 7260 unique shell quartets.
  ==> DiskJK: Disk-Based J/K Matrices <==

    J tasked:                  Yes
    K tasked:                  Yes
    wK tasked:                  No
    Memory (MB):              7152
    Schwarz Cutoff:          1E-12

    OpenMP threads:              1
  Minimum eigenvalue in the overlap matrix is 7.1388822688E-04.
  Using Symmetric Orthogonalization.
  SCF Guess: Superposition of Atomic Densities via on-the-fly atomic UHF.

  ==> Iterations <==

                        Total Energy        Delta E     RMS |[F,P]|

   @RHF iter   0:   -44.44312216844388   -4.44431e+01   1.01512e-01 
   @RHF iter   1:   -43.51171359377649    9.31409e-01   9.48350e-03 
   @RHF iter   2:   -43.54149117109097   -2.97776e-02   3.50251e-03 DIIS
   @RHF iter   3:   -43.54482669831571   -3.33553e-03   1.61527e-03 DIIS
   @RHF iter   4:   -43.54621256937077   -1.38587e-03   2.69821e-04 DIIS
   @RHF iter   5:   -43.54626453093150   -5.19616e-05   1.95985e-05 DIIS
   @RHF iter   6:   -43.54626465739447   -1.26463e-07   2.20974e-06 DIIS
   @RHF iter   7:   -43.54626465865864   -1.26417e-09   2.17368e-07 DIIS
   @RHF iter   8:   -43.54626465867292   -1.42819e-11   1.89493e-08 DIIS
   @RHF iter   9:   -43.54626465867302   -9.94760e-14   2.73736e-09 DIIS
   @RHF iter  10:   -43.54626465867304   -1.42109e-14   4.79342e-10 DIIS
   @RHF iter  11:   -43.54626465867302    1.42109e-14   6.51485e-11 DIIS
   @RHF iter  12:   -43.54626465867302    0.00000e+00   6.12858e-12 DIIS

  ==> Post-Iterations <==

    Orbital Energies (a.u.)
    -----------------------

    Doubly Occupied:                                                      

       1Ag    -4.681495     1B1u   -4.681251     2Ag    -4.667108  
       3Ag    -0.477863     2B1u   -0.380812     4Ag    -0.141822  

    Virtual:                                                              

       1B3u   -0.002200     1B2u   -0.002200     3B1u    0.004979  
       1B2g    0.094740     1B3g    0.094740     2B3u    0.219300  
       2B2u    0.219300     4B1u    0.306205     5Ag     0.312864  
       6Ag     0.326329     3B3u    0.397658     3B2u    0.397658  
       5B1u    0.473465     2B2g    0.479651     2B3g    0.479651  
       7Ag     0.544553     4B3u    0.577889     4B2u    0.577889  
       6B1u    0.684927     8Ag     0.921893     7B1u    1.092580  

    Final Occupation by Irrep:
             Ag   B1g   B2g   B3g    Au   B1u   B2u   B3u 
    DOCC [     4,    0,    0,    0,    0,    2,    0,    0 ]

  Energy converged.

  @RHF Final Energy:   -43.54626465867302

   => Energetics <=

    Nuclear Repulsion Energy =             12.4512284374117588
    One-Electron Energy =                 -81.9342842357830534
    Two-Electron Energy =                  25.9367911396982791
    DFT Exchange-Correlation Energy =       0.0000000000000000
    Empirical Dispersion Energy =           0.0000000000000000
    PCM Polarization Energy =               0.0000000000000000
    EFP Energy =                            0.0000000000000000
    Total Energy =                        -43.5462646586730173


  Saving occupied orbitals to File 180.

*** tstop() called on compute-0-1.local at Fri Jul 28 09:56:25 2017
Module time:
	user time   =       0.27 seconds =       0.00 minutes
	system time =       0.01 seconds =       0.00 minutes
	total time  =          0 seconds =       0.00 minutes
Total time:
	user time   =       0.27 seconds =       0.00 minutes
	system time =       0.01 seconds =       0.00 minutes
	total time  =          0 seconds =       0.00 minutes


Properties will be evaluated at   0.000000,   0.000000,   0.000000 Bohr

Properties computed using the SCF density matrix

  Nuclear Dipole Moment: (a.u.)
     X:     0.0000      Y:     0.0000      Z:     0.0000

  Electronic Dipole Moment: (a.u.)
     X:     0.0000      Y:     0.0000      Z:     0.0000

  Dipole Moment: (a.u.)
     X:     0.0000      Y:     0.0000      Z:     0.0000     Total:     0.0000

  Dipole Moment: (Debye)
     X:     0.0000      Y:     0.0000      Z:     0.0000     Total:     0.0000

 MINTS: Wrapper to libmints.
   by Justin Turney

   Calculation information:
      Number of atoms:                   3
      Number of AO shells:              15
      Number of SO shells:              10
      Number of primitives:             42
      Number of atomic orbitals:        27
      Number of basis functions:        27

      Number of irreps:                  8
      Integral cutoff                 0.00e+00
      Number of functions per irrep: [   8    0    2    2    0    7    4    4 ]

 OEINTS: Overlap, kinetic, potential, dipole, and quadrupole integrals
         stored in file 35.

      Computing two-electron integrals...done
      Computed 11211 non-zero two-electron integrals.
        Stored in file 33.


         ---------------------------------------------------------
                                 D E T C I  

                             C. David Sherrill
                             Matt L. Leininger
                               18 June 1999
         ---------------------------------------------------------


DETCI PARAMETERS: 
   EX LEVEL      =        6      H0 BLOCKSIZE =     1000
   VAL EX LEVEL  =        0      H0 GUESS SIZE=     1000
   H0COUPLINGSIZE=        0      H0 COUPLING  =       no
   MAXITER       =       24      NUM PRINT    =       20
   NUM ROOTS     =        1      ICORE        =        1
   PRINT         =        1      FCI          =      yes
   R CONV        = 1.00e-04      MIXED        =      yes
   E CONV        = 1.00e-14      MIXED4       =      yes
   R4S           =       no      REPL OTF     =       no
   DIAG METHOD   =      SEM
   PRECONDITIONER= DAVIDSON      UPDATE       = DAVIDSON
   S             =   0.0000      Ms0          =      yes
   MAX NUM VECS  =       25
   RESTART       =       no
   GUESS VECTOR  =  H0BLOCK      OPENTYPE     =     NONE
   REF SYM       =     auto
   COLLAPSE SIZE =        1      HD AVG       = EVANGELISTI
   LSE           =       no      LSE ITER     =        0
   HD OTF        =      yes      NO DFILE     =       no
   MPN           =       no      MPN SCHMIDT  =       no
   ZAPTN         =       no      MPN WIGNER   =       no
   PERT Z        =   1.0000      FOLLOW ROOT  =        0
   NUM THREADS   =        1
   FILTER GUESS  =       no      SF RESTRICT  =       no
   OPDM          =       no      TRANS DENSITY=       no

   FILES         =  50 51 52 53

   EX ALLOW      =  1  1  1  1  1  1 
   STATE AVERAGE =  1(1.00) 

ORBITALS:
   NMO          =       27
   FROZEN CORE  =        3      RESTR CORE   =        0
   FROZEN VIRT  =        0      RESTR VIRT   =        0
   DROPPED CORE =        3      DROPPED VIRT =        0
   EXPLICIT CORE=        0      ORBS IN CI   =       24
   NUM ALP      =        6      NUM BET      =        6
   NUM ALP EXPL =        3      NUM BET EXPL =        3
   IOPEN        =       no

   DOCC            =   4   0   0   0   0   2   0   0 
   SOCC            =   0   0   0   0   0   0   0   0 

   FROZEN DOCC     =   2   0   0   0   0   1   0   0 
   RESTRICTED DOCC =   0   0   0   0   0   0   0   0 
   ACTIVE          =   6   0   2   2   0   6   4   4 
   RESTRICTED UOCC =   0   0   0   0   0   0   0   0 
   FROZEN UOCC     =   0   0   0   0   0   0   0   0 
         ---------------------------------------------------------


   ==> Setting up CI strings <==

   There are 2024 alpha and 2024 beta strings
   The CI space requires 517872 (5.18E+05) determinants and 8 blocks


   ==> Transforming CI integrals <==
	Presorting SO-basis two-electron integrals.
	Sorting File: SO Ints (nn|nn) nbuckets = 1
	Transforming the one-electron integrals and constructing Fock matrices
	Starting first half-transformation.
	Sorting half-transformed integrals.
	First half integral transformation complete.
	Starting second half-transformation.
	Two-electron integral transformation complete.

*** H0 Block Eigenvalue = -43.70377161

Find the roots by the Simultaneous Expansion Method (Block Davidson Method)
Using 1 initial trial vectors
Iter  0  Root  1 = -43.703771614   Delta_E -5.988E+00   Delta_C  1.927E-01  
Iter  1  Root  1 = -43.731090642   Delta_E -2.732E-02   Delta_C  5.713E-02  
Iter  2  Root  1 = -43.733292133   Delta_E -2.201E-03   Delta_C  2.705E-02  
Iter  3  Root  1 = -43.733801101   Delta_E -5.090E-04   Delta_C  1.464E-02  
Iter  4  Root  1 = -43.734008498   Delta_E -2.074E-04   Delta_C  9.865E-03  
Iter  5  Root  1 = -43.734136830   Delta_E -1.283E-04   Delta_C  1.011E-02  
Iter  6  Root  1 = -43.734276689   Delta_E -1.399E-04   Delta_C  1.296E-02  
Iter  7  Root  1 = -43.734435648   Delta_E -1.590E-04   Delta_C  1.340E-02  
Iter  8  Root  1 = -43.734582880   Delta_E -1.472E-04   Delta_C  1.082E-02  
Iter  9  Root  1 = -43.734675662   Delta_E -9.278E-05   Delta_C  7.898E-03  
Iter 10  Root  1 = -43.734721768   Delta_E -4.611E-05   Delta_C  5.459E-03  
Iter 11  Root  1 = -43.734740686   Delta_E -1.892E-05   Delta_C  3.259E-03  
Iter 12  Root  1 = -43.734746580   Delta_E -5.894E-06   Delta_C  1.698E-03  
Iter 13  Root  1 = -43.734748095   Delta_E -1.515E-06   Delta_C  8.590E-04  
Iter 14  Root  1 = -43.734748494   Delta_E -3.986E-07   Delta_C  4.658E-04  
Iter 15  Root  1 = -43.734748624   Delta_E -1.302E-07   Delta_C  2.629E-04  
Iter 16  Root  1 = -43.734748668   Delta_E -4.450E-08   Delta_C  1.548E-04  
Iter 17  Root  1 = -43.734748683   Delta_E -1.515E-08   Delta_C  9.330E-05  
Iter 18  Root  1 = -43.734748689   Delta_E -5.141E-09   Delta_C  5.424E-05  
Iter 19  Root  1 = -43.734748690   Delta_E -1.694E-09   Delta_C  2.914E-05  
Iter 20  Root  1 = -43.734748691   Delta_E -4.709E-10   Delta_C  1.587E-05  
Iter 21  Root  1 = -43.734748691   Delta_E -1.429E-10   Delta_C  8.895E-06  
Iter 22  Root  1 = -43.734748691   Delta_E -4.676E-11   Delta_C  4.969E-06  
Iter 23  Root  1 = -43.734748691   Delta_E -1.399E-11   Delta_C  2.677E-06  
Iter 24  Root  1 = -43.734748691   Delta_E -3.807E-12   Delta_C  1.390E-06  

Maximum number of CI iterations reached

* ROOT 1 CI total energy = -43.7347486909236


The 20 most important determinants

    1   -0.671083  (    0,    0)  3AgX  4AgX  2B1uX  
    2    0.490701  ( 1242, 1242)  3AgX  2B1uX  3B1uX  
    3    0.247553  ( 1562, 1562)  3AgX  2B1uX  1B2uX  
    4    0.247553  ( 1836, 1836)  3AgX  2B1uX  1B3uX  
    5   -0.060859  (  839,  839)  2B1uX  3B1uX  1B2uX  
    6   -0.060859  (  611,  611)  2B1uX  3B1uX  1B3uX  
    7    0.058047  ( 1563, 1563)  4AgX  2B1uX  1B2uX  
    8    0.058047  ( 1837, 1837)  4AgX  2B1uX  1B3uX  
    9   -0.055200  ( 1568, 1568)  3AgX  3B1uX  1B2uX  
   10   -0.055200  ( 1842, 1842)  3AgX  3B1uX  1B3uX  
   11    0.053964  ( 1562, 1568)  3AgX  2B1uA  3B1uB  1B2uX  
   12    0.053964  ( 1568, 1562)  3AgX  2B1uB  3B1uA  1B2uX  
   13    0.053964  ( 1836, 1842)  3AgX  2B1uA  3B1uB  1B3uX  
   14    0.053964  ( 1842, 1836)  3AgX  2B1uB  3B1uA  1B3uX  
   15   -0.051677  (  750,  822)  3AgX  4AgB  2B1uA  1B3gA  1B2uB  
   16   -0.051677  (  822,  750)  3AgX  4AgA  2B1uB  1B3gB  1B2uA  
   17   -0.051677  (  506,  594)  3AgX  4AgB  2B1uA  1B2gA  1B3uB  
   18   -0.051677  (  594,  506)  3AgX  4AgA  2B1uB  1B2gB  1B3uA  
   19   -0.047686  (  374,  374)  2B1uX  1B2uX  1B3uX  
   20    0.046950  ( 1562, 1563)  3AgA  4AgB  2B1uX  1B2uX  


An error has occurred python-side. Traceback (most recent call last):

  File "<string>", line 39, in <module>

  File "/home/yhliu/psi4conda/share/psi4/python/driver.py", line 446, in energy
    wfn = procedures['energy'][lowername](lowername, molecule=molecule, **kwargs)

  File "/home/yhliu/psi4conda/share/psi4/python/procedures/proc.py", line 2595, in run_detci
    ci_wfn = psi4.detci(ref_wfn)

RuntimeError: 
Fatal Error: CIWavefunction: Iterations did not converge!
Error occurred in file: /scratch/cdsgroup/conda-builds/work/src/bin/detci/ciwave.cc on line: 364
The most recent 5 function calls were:

psi::PsiException::PsiException(std::string, char const*, int)
psi::detci::CIWavefunction::convergence_death()
psi::detci::CIWavefunction::diag_h()
psi::detci::CIWavefunction::compute_energy()
psi::detci::detci(boost::shared_ptr<psi::Wavefunction>, psi::Options&)



