    -----------------------------------------------------------------------
          Psi4: An Open-Source Ab Initio Electronic Structure Package
                              Psi4 1.0.0 Driver

                          Git: Rev {master} 6a9a71b dirty

    J. M. Turney, A. C. Simmonett, R. M. Parrish, E. G. Hohenstein,
    F. A. Evangelista, J. T. Fermann, B. J. Mintz, L. A. Burns, J. J. Wilke,
    M. L. Abrams, N. J. Russ, M. L. Leininger, C. L. Janssen, E. T. Seidl,
    W. D. Allen, H. F. Schaefer, R. A. King, E. F. Valeev, C. D. Sherrill,
    and T. D. Crawford, WIREs Comput. Mol. Sci. 2, 556-565 (2012)
    (doi: 10.1002/wcms.93)

                         Additional Contributions by
    A. E. DePrince, U. Bozkaya, A. Yu. Sokolov, D. G. A. Smith, R. Di Remigio,
    R. M. Richard, J. F. Gonthier, H. R. McAlexander, M. Saitow, and
    B. P. Pritchard
    -----------------------------------------------------------------------


    Psi4 started on: Fri Jul 28 09:57:06 2017

    Process ID:  12154
    PSI4DATADIR: /home/yhliu/psi4conda/share/psi4
    Memory level set to 256.000 MB

  ==> Input File <==

--------------------------------------------------------------------------

memory 10 Gb
molecule be2 {
0 1
Be  0.0  0.0  0.0
Be  0.0  0.0  2.100 
Be  0.0  0.0  4.200 
units angstrom    
}

set basis 6-31g
set freeze_core true
set PRINT_BASIS True
set PUREAM False
set E_CONVERGENCE 1e-14
energy('fci')
--------------------------------------------------------------------------
/home/yhliu/psi4conda/lib/python2.7/site-packages/v2rdm_casscf/v2rdm_casscf.so loaded.

  Memory set to  10.000 GiB by Python script.

*** tstart() called on compute-0-1.local
*** at Fri Jul 28 09:57:07 2017


         ---------------------------------------------------------
                                   SCF
            by Justin Turney, Rob Parrish, and Andy Simmonett
                              RHF Reference
                        1 Threads,  10000 MiB Core
         ---------------------------------------------------------

  ==> Geometry <==

    Molecular point group: d2h
    Full point group: D_inf_h

    Geometry (in Angstrom), charge = 0, multiplicity = 1:

       Center              X                  Y                   Z               Mass       
    ------------   -----------------  -----------------  -----------------  -----------------
          BE          0.000000000000     0.000000000000    -2.100000000000     9.012182201000
          BE          0.000000000000     0.000000000000     0.000000000000     9.012182201000
          BE          0.000000000000     0.000000000000     2.100000000000     9.012182201000

  Running in d2h symmetry.

  Rotational constants: A = ************  B =      0.21208  C =      0.21208 [cm^-1]
  Rotational constants: A = ************  B =   6357.97254  C =   6357.97254 [MHz]
  Nuclear repulsion =   10.079565877904763

  Charge       = 0
  Multiplicity = 1
  Electrons    = 12
  Nalpha       = 6
  Nbeta        = 6

  ==> Algorithm <==

  SCF Algorithm Type is PK.
  DIIS enabled.
  MOM disabled.
  Fractional occupation disabled.
  Guess Type is SAD.
  Energy threshold   = 1.00e-14
  Density threshold  = 1.00e-08
  Integral threshold = 0.00e+00

  ==> Primary Basis <==

  Basis Set: 6-31G
    Number of shells: 15
    Number of basis function: 27
    Number of Cartesian functions: 27
    Spherical Harmonics?: false
    Max angular momentum: 1

  -AO BASIS SET INFORMATION:
    Name                   = 6-31G
    Total number of shells = 15
    Number of primitives   = 42
    Number of AO           = 27
    Number of SO           = 27
    Maximum AM             = 1
    Spherical Harmonics    = FALSE

  -Contraction Scheme:
    Atom   Type   All Primitives // Shells:
   ------ ------ --------------------------
       1    BE     10s 4p // 3s 2p 
       2    BE     10s 4p // 3s 2p 
       3    BE     10s 4p // 3s 2p 

  ==> AO Basis Functions <==

    [ 6-31G ]
    cartesian
    ****
   BE   1
    S   6 1.00
                      1264.58570000           0.00194480
                       189.93681000           0.01483510
                        43.15908900           0.07209060
                        12.09866300           0.23715420
                         3.80632320           0.46919870
                         1.27289030           0.35652020
    S   3 1.00
                         3.19646310          -0.11264870
                         0.74781330          -0.22950640
                         0.21996630           1.18691670
    P   3 1.00
                         3.19646310           0.05598020
                         0.74781330           0.26155060
                         0.21996630           0.79397230
    S   1 1.00
                         0.08230990           1.00000000
    P   1 1.00
                         0.08230990           1.00000000
    ****
   BE   2
    S   6 1.00
                      1264.58570000           0.00194480
                       189.93681000           0.01483510
                        43.15908900           0.07209060
                        12.09866300           0.23715420
                         3.80632320           0.46919870
                         1.27289030           0.35652020
    S   3 1.00
                         3.19646310          -0.11264870
                         0.74781330          -0.22950640
                         0.21996630           1.18691670
    P   3 1.00
                         3.19646310           0.05598020
                         0.74781330           0.26155060
                         0.21996630           0.79397230
    S   1 1.00
                         0.08230990           1.00000000
    P   1 1.00
                         0.08230990           1.00000000
    ****

  ==> Pre-Iterations <==

   -------------------------------------------------------
    Irrep   Nso     Nmo     Nalpha   Nbeta   Ndocc  Nsocc
   -------------------------------------------------------
     Ag         8       8       0       0       0       0
     B1g        0       0       0       0       0       0
     B2g        2       2       0       0       0       0
     B3g        2       2       0       0       0       0
     Au         0       0       0       0       0       0
     B1u        7       7       0       0       0       0
     B2u        4       4       0       0       0       0
     B3u        4       4       0       0       0       0
   -------------------------------------------------------
    Total      27      27       6       6       6       0
   -------------------------------------------------------

  ==> Integral Setup <==

  Using in-core PK algorithm.
   Calculation information:
      Number of atoms:                   3
      Number of AO shells:              15
      Number of primitives:             42
      Number of atomic orbitals:        27
      Number of basis functions:        27

      Integral cutoff                 1.00e-12
      Number of threads:                 1

  Performing in-core PK
  Using 143262 doubles for integral storage.
  We computed 7140 shell quartets total.
  Whereas there are 7260 unique shell quartets.
  ==> DiskJK: Disk-Based J/K Matrices <==

    J tasked:                  Yes
    K tasked:                  Yes
    wK tasked:                  No
    Memory (MB):              7152
    Schwarz Cutoff:          1E-12

    OpenMP threads:              1
  Minimum eigenvalue in the overlap matrix is 3.6664294534E-03.
  Using Symmetric Orthogonalization.
  SCF Guess: Superposition of Atomic Densities via on-the-fly atomic UHF.

  ==> Iterations <==

                        Total Energy        Delta E     RMS |[F,P]|

   @RHF iter   0:   -44.11839151753544   -4.41184e+01   5.88468e-02 
   @RHF iter   1:   -43.64098153445919    4.77410e-01   6.51726e-03 
   @RHF iter   2:   -43.65622658540342   -1.52451e-02   2.53358e-03 DIIS
   @RHF iter   3:   -43.65869983690678   -2.47325e-03   1.23361e-03 DIIS
   @RHF iter   4:   -43.65975338469335   -1.05355e-03   2.10183e-04 DIIS
   @RHF iter   5:   -43.65978889572938   -3.55110e-05   1.20041e-05 DIIS
   @RHF iter   6:   -43.65978895643214   -6.07028e-08   1.91399e-06 DIIS
   @RHF iter   7:   -43.65978895774546   -1.31332e-09   3.44796e-07 DIIS
   @RHF iter   8:   -43.65978895779148   -4.60290e-11   3.57063e-08 DIIS
   @RHF iter   9:   -43.65978895779198   -4.97380e-13   5.17146e-09 DIIS
   @RHF iter  10:   -43.65978895779200   -2.13163e-14   2.72077e-10 DIIS
   @RHF iter  11:   -43.65978895779202   -1.42109e-14   2.30383e-11 DIIS
   @RHF iter  12:   -43.65978895779200    2.13163e-14   5.18902e-12 DIIS
   @RHF iter  13:   -43.65978895779200    0.00000e+00   2.37515e-13 DIIS

  ==> Post-Iterations <==

    Orbital Energies (a.u.)
    -----------------------

    Doubly Occupied:                                                      

       1Ag    -4.694179     1B1u   -4.694128     2Ag    -4.693101  
       3Ag    -0.440109     2B1u   -0.356076     4Ag    -0.163531  

    Virtual:                                                              

       3B1u    0.003284     1B2u    0.018049     1B3u    0.018049  
       1B3g    0.086980     1B2g    0.086980     2B2u    0.184423  
       2B3u    0.184423     5Ag     0.256441     4B1u    0.311372  
       6Ag     0.361902     3B2u    0.433705     3B3u    0.433705  
       5B1u    0.463637     2B3g    0.482611     2B2g    0.482611  
       7Ag     0.485086     4B2u    0.528237     4B3u    0.528237  
       6B1u    0.647720     8Ag     0.742405     7B1u    0.765384  

    Final Occupation by Irrep:
             Ag   B1g   B2g   B3g    Au   B1u   B2u   B3u 
    DOCC [     4,    0,    0,    0,    0,    2,    0,    0 ]

  Energy converged.

  @RHF Final Energy:   -43.65978895779200

   => Energetics <=

    Nuclear Repulsion Energy =             10.0795658779047628
    One-Electron Energy =                 -77.3964623464135997
    Two-Electron Energy =                  23.6571075107168376
    DFT Exchange-Correlation Energy =       0.0000000000000000
    Empirical Dispersion Energy =           0.0000000000000000
    PCM Polarization Energy =               0.0000000000000000
    EFP Energy =                            0.0000000000000000
    Total Energy =                        -43.6597889577920029


  Saving occupied orbitals to File 180.

*** tstop() called on compute-0-1.local at Fri Jul 28 09:57:07 2017
Module time:
	user time   =       0.19 seconds =       0.00 minutes
	system time =       0.01 seconds =       0.00 minutes
	total time  =          0 seconds =       0.00 minutes
Total time:
	user time   =       0.19 seconds =       0.00 minutes
	system time =       0.01 seconds =       0.00 minutes
	total time  =          0 seconds =       0.00 minutes


Properties will be evaluated at   0.000000,   0.000000,   0.000000 Bohr

Properties computed using the SCF density matrix

  Nuclear Dipole Moment: (a.u.)
     X:     0.0000      Y:     0.0000      Z:     0.0000

  Electronic Dipole Moment: (a.u.)
     X:     0.0000      Y:     0.0000      Z:     0.0000

  Dipole Moment: (a.u.)
     X:     0.0000      Y:     0.0000      Z:     0.0000     Total:     0.0000

  Dipole Moment: (Debye)
     X:     0.0000      Y:     0.0000      Z:     0.0000     Total:     0.0000

 MINTS: Wrapper to libmints.
   by Justin Turney

   Calculation information:
      Number of atoms:                   3
      Number of AO shells:              15
      Number of SO shells:              10
      Number of primitives:             42
      Number of atomic orbitals:        27
      Number of basis functions:        27

      Number of irreps:                  8
      Integral cutoff                 0.00e+00
      Number of functions per irrep: [   8    0    2    2    0    7    4    4 ]

 OEINTS: Overlap, kinetic, potential, dipole, and quadrupole integrals
         stored in file 35.

      Computing two-electron integrals...done
      Computed 11211 non-zero two-electron integrals.
        Stored in file 33.


         ---------------------------------------------------------
                                 D E T C I  

                             C. David Sherrill
                             Matt L. Leininger
                               18 June 1999
         ---------------------------------------------------------


DETCI PARAMETERS: 
   EX LEVEL      =        6      H0 BLOCKSIZE =     1000
   VAL EX LEVEL  =        0      H0 GUESS SIZE=     1000
   H0COUPLINGSIZE=        0      H0 COUPLING  =       no
   MAXITER       =       24      NUM PRINT    =       20
   NUM ROOTS     =        1      ICORE        =        1
   PRINT         =        1      FCI          =      yes
   R CONV        = 1.00e-04      MIXED        =      yes
   E CONV        = 1.00e-14      MIXED4       =      yes
   R4S           =       no      REPL OTF     =       no
   DIAG METHOD   =      SEM
   PRECONDITIONER= DAVIDSON      UPDATE       = DAVIDSON
   S             =   0.0000      Ms0          =      yes
   MAX NUM VECS  =       25
   RESTART       =       no
   GUESS VECTOR  =  H0BLOCK      OPENTYPE     =     NONE
   REF SYM       =     auto
   COLLAPSE SIZE =        1      HD AVG       = EVANGELISTI
   LSE           =       no      LSE ITER     =        0
   HD OTF        =      yes      NO DFILE     =       no
   MPN           =       no      MPN SCHMIDT  =       no
   ZAPTN         =       no      MPN WIGNER   =       no
   PERT Z        =   1.0000      FOLLOW ROOT  =        0
   NUM THREADS   =        1
   FILTER GUESS  =       no      SF RESTRICT  =       no
   OPDM          =       no      TRANS DENSITY=       no

   FILES         =  50 51 52 53

   EX ALLOW      =  1  1  1  1  1  1 
   STATE AVERAGE =  1(1.00) 

ORBITALS:
   NMO          =       27
   FROZEN CORE  =        3      RESTR CORE   =        0
   FROZEN VIRT  =        0      RESTR VIRT   =        0
   DROPPED CORE =        3      DROPPED VIRT =        0
   EXPLICIT CORE=        0      ORBS IN CI   =       24
   NUM ALP      =        6      NUM BET      =        6
   NUM ALP EXPL =        3      NUM BET EXPL =        3
   IOPEN        =       no

   DOCC            =   4   0   0   0   0   2   0   0 
   SOCC            =   0   0   0   0   0   0   0   0 

   FROZEN DOCC     =   2   0   0   0   0   1   0   0 
   RESTRICTED DOCC =   0   0   0   0   0   0   0   0 
   ACTIVE          =   6   0   2   2   0   6   4   4 
   RESTRICTED UOCC =   0   0   0   0   0   0   0   0 
   FROZEN UOCC     =   0   0   0   0   0   0   0   0 
         ---------------------------------------------------------


   ==> Setting up CI strings <==

   There are 2024 alpha and 2024 beta strings
   The CI space requires 517872 (5.18E+05) determinants and 8 blocks


   ==> Transforming CI integrals <==
	Presorting SO-basis two-electron integrals.
	Sorting File: SO Ints (nn|nn) nbuckets = 1
	Transforming the one-electron integrals and constructing Fock matrices
	Starting first half-transformation.
	Sorting half-transformed integrals.
	First half integral transformation complete.
	Starting second half-transformation.
	Two-electron integral transformation complete.

*** H0 Block Eigenvalue = -43.79543326

Find the roots by the Simultaneous Expansion Method (Block Davidson Method)
Using 1 initial trial vectors
Iter  0  Root  1 = -43.795433264   Delta_E -5.486E+00   Delta_C  1.826E-01  
Iter  1  Root  1 = -43.822179288   Delta_E -2.675E-02   Delta_C  5.677E-02  
Iter  2  Root  1 = -43.824315810   Delta_E -2.137E-03   Delta_C  2.653E-02  
Iter  3  Root  1 = -43.824784692   Delta_E -4.689E-04   Delta_C  1.299E-02  
Iter  4  Root  1 = -43.824915525   Delta_E -1.308E-04   Delta_C  7.744E-03  
Iter  5  Root  1 = -43.824956282   Delta_E -4.076E-05   Delta_C  5.377E-03  
Iter  6  Root  1 = -43.824975087   Delta_E -1.881E-05   Delta_C  3.587E-03  
Iter  7  Root  1 = -43.824987202   Delta_E -1.211E-05   Delta_C  2.628E-03  
Iter  8  Root  1 = -43.824992983   Delta_E -5.781E-06   Delta_C  1.772E-03  
Iter  9  Root  1 = -43.824995168   Delta_E -2.185E-06   Delta_C  1.032E-03  
Iter 10  Root  1 = -43.824995968   Delta_E -7.993E-07   Delta_C  6.764E-04  
Iter 11  Root  1 = -43.824996297   Delta_E -3.296E-07   Delta_C  4.961E-04  
Iter 12  Root  1 = -43.824996449   Delta_E -1.517E-07   Delta_C  3.173E-04  
Iter 13  Root  1 = -43.824996505   Delta_E -5.628E-08   Delta_C  1.727E-04  
Iter 14  Root  1 = -43.824996520   Delta_E -1.497E-08   Delta_C  8.241E-05  
Iter 15  Root  1 = -43.824996523   Delta_E -3.174E-09   Delta_C  3.944E-05  
Iter 16  Root  1 = -43.824996524   Delta_E -7.058E-10   Delta_C  1.876E-05  
Iter 17  Root  1 = -43.824996524   Delta_E -1.705E-10   Delta_C  8.594E-06  
Iter 18  Root  1 = -43.824996524   Delta_E -3.723E-11   Delta_C  3.955E-06  
Iter 19  Root  1 = -43.824996524   Delta_E -8.042E-12   Delta_C  1.818E-06  
Iter 20  Root  1 = -43.824996524   Delta_E -1.855E-12   Delta_C  8.556E-07  
Iter 21  Root  1 = -43.824996524   Delta_E -4.325E-13   Delta_C  4.384E-07  
Warning: Norm of correction (root 0) is < 1.0E-13
Iter 22  Root  1 = -43.824996524   Delta_E -1.039E-13   Delta_C  2.302E-07  
Warning: Norm of correction (root 0) is < 1.0E-13
Iter 23  Root  1 = -43.824996524   Delta_E -3.375E-14   Delta_C  1.159E-07  
Warning: Norm of correction (root 0) is < 1.0E-13
Iter 24  Root  1 = -43.824996524   Delta_E -1.776E-15   Delta_C  5.942E-08 c

Maximum number of CI iterations reached

* ROOT 1 CI total energy = -43.8249965243159


The 20 most important determinants

    1   -0.767275  (    0,    0)  3AgX  4AgX  2B1uX  
    2    0.487026  ( 1242, 1242)  3AgX  2B1uX  3B1uX  
    3    0.077120  ( 1836, 1836)  3AgX  2B1uX  1B3uX  
    4    0.077120  ( 1562, 1562)  3AgX  2B1uX  1B2uX  
    5    0.061839  (    0,   17)  3AgX  4AgX  2B1uA  3B1uB  
    6    0.061839  (   17,    0)  3AgX  4AgX  2B1uB  3B1uA  
    7    0.060675  ( 1563, 1563)  4AgX  2B1uX  1B2uX  
    8    0.060675  ( 1837, 1837)  4AgX  2B1uX  1B3uX  
    9    0.048930  (    1,   17)  3AgX  4AgB  2B1uA  5AgA  3B1uB  
   10    0.048930  (   17,    1)  3AgX  4AgA  2B1uB  5AgB  3B1uA  
   11   -0.045156  (  611,  611)  2B1uX  3B1uX  1B3uX  
   12   -0.045156  (  839,  839)  2B1uX  3B1uX  1B2uX  
   13   -0.041975  (    0,   18)  3AgX  4AgA  2B1uA  5AgB  3B1uB  
   14   -0.041975  (   18,    0)  3AgX  4AgB  2B1uB  5AgA  3B1uA  
   15   -0.041652  ( 1242, 1260)  3AgX  2B1uX  3B1uA  5B1uB  
   16   -0.041652  ( 1260, 1242)  3AgX  2B1uX  3B1uB  5B1uA  
   17    0.040687  ( 1500, 1500)  3AgX  4AgX  1B3gX  
   18    0.040687  ( 1762, 1762)  3AgX  4AgX  1B2gX  
   19   -0.040294  ( 1837, 1880)  3AgB  4AgA  2B1uX  1B3uA  2B3uB  
   20   -0.040294  ( 1880, 1837)  3AgA  4AgB  2B1uX  1B3uB  2B3uA  


		 "A good bug is a dead bug" 

			 - Starship Troopers

		 "I didn't write FORTRAN.  That's the problem."

			 - Edward Valeev


*** Psi4 exiting successfully. Buy a developer a beer!
